256
Atoms. Timestep: 10000
1 5.92223 2.67933 6.08837
1 2.24835 2.78741 6.56147
1 3.89215 5.92527 5.18153
1 0.353781 5.2403 2.77693
1 5.34053 4.15655 4.59423
1 4.16028 5.83499 1.11779
1 0.420052 6.4225 3.05154
1 4.89758 6.33218 3.03837
1 6.44335 1.84178 5.73764
1 2.48237 0.29799 1.37511
1 0.272536 0.807917 4.9713
1 4.64692 3.46386 0.461416
1 3.0598 1.79011 5.34791
1 0.334974 2.68175 5.917
1 1.53919 3.04065 1.76941
1 1.25352 6.12365 3.99273
1 0.520133 6.36931 0.0967009
1 2.96039 4.47829 5.93598
1 5.6225 1.00555 1.8813
1 2.41885 3.23261 0.863874
1 2.82729 2.96709 2.75252
1 5.50119 2.29959 4.51242
1 0.761767 3.42929 4.56829
1 6.56553 5.93893 4.96619
1 0.366311 5.04856 0.58975
1 6.10813 4.97997 3.08625
1 0.49114 0.167568 4.178
1 1.45016 1.01069 5.42201
1 0.789198 0.350992 5.7904
1 2.75276 4.01497 4.67449
1 4.38616 2.46062 3.36777
1 5.32028 5.25163 0.235599
1 5.89901 0.231402 1.23861
1 3.43393 3.50831 5.40854
1 0.942717 1.42281 2.31285
1 2.73161 1.34999 0.81731
1 5.35676 6.59284 2.12524
1 5.01397 3.89404 2.86972
1 3.82422 2.01317 1.18526
1 6.54582 1.32316 0.35727
1 1.19719 1.01952 6.48933
1 6.32493 4.58663 6.66136
1 3.45744 5.12352 0.83095
1 2.26823 5.41449 0.901998
1 4.59458 0.262563 6.52308
1 2.07922 0.655712 3.31292
1 4.04837 5.32258 2.1319
1 2.97634 0.549617 3.92037
1 0.614252 4.83631 6.26957
1 6.65567 2.36085 6.73094
1 6.56104 6.73219 5.74087
1 2.24738 3.85177 5.54684
1 3.39254 4.31628 0.151541
1 2.22271 6.61872 4.34628
1 5.33412 6.49993 0.372526
1 5.05684 1.66296 5.71363
1 4.77181 4.87119 1.01452
1 1.16598 5.71939 0.488748
1 3.78309 3.54777 2.93015
1 3.6802 1.59453 0.227368
1 2.21806 3.14695 4.4278
1 3.95685 1.87384 6.14883
1 6.08688 5.59234 2.14821
1 1.81563 3.60213 2.55952
1 3.74621 5.21045 6.06157
1 3.05506 6.05745 1.21371
1 4.02326 0.143733 3.88516
1 0.841837 1.3263 4.22177
1 6.34142 3.49081 6.56502
1 3.68617 6.36368 3.00428
1 5.83902 3.23601 4.00965
1 1.41817 0.476316 4.50874
1 6.57269 2.79178 2.90614
1 4.60684 1.24183 6.71251
1 1.84876 2.75996 3.39599
1 2.9513 2.44766 1.62229
1 5.40463 4.15905 0.336283
1 5.98761 0.859802 5.44306
1 5.47439 4.19583 1.41739
1 3.17339 5.50334 3.4082
1 5.94569 4.89982 0.986002
1 2.08162 2.28671 1.16281
1 2.81559 4.37716 2.88031
1 4.30755 6.62005 2.17013
1 4.87466 2.43887 6.30917
1 1.67812 6.42374 2.87116
1 1.71581 0.326168 2.04778
1 5.21604 3.15436 1.29395
1 0.0390253 6.53552 0.972978
1 5.49798 0.728301 6.29364
1 1.20725 4.30369 3.23318
1 3.98819 0.868428 0.95289
1 4.53923 5.86973 6.76816
1 5.69189 1.76665 6.59986
1 5.75122 6.16326 6.20925
1 6.25627 0.0522544 4.15348
1 1.32286 5.08373 3.88614
1 1.72441 4.94781 5.95921
1 6.15111 2.37994 1.89604
1 0.923304 6.13236 2.1514
1 5.80015 3.83769 5.45266
1 3.47614 1.37004 3.3746
1 5.07642 2.01277 1.74745
1 2.57985 2.0516 3.07539
1 6.33094 2.91641 5.04107
1 0.165547 2.27869 0.848294
1 3.07258 5.53593 2.25826
1 2.5284 1.21413 2.02923
1 6.23724 4.5467 2.02017
1 4.84382 2.17161 0.705518
1 6.30527 5.7897 0.387717
1 5.27767 3.57217 6.31998
1 6.3929 3.16843 0.982523
1 0.238518 0.635153 2.52612
1 3.93339 4.78364 3.15007
1 3.33584 6.0079 0.0624181
1 2.37092 4.81934 3.95501
1 2.72836 3.61156 1.8611
1 3.32783 4.52698 1.75623
1 4.39748 4.72859 6.76068
1 0.076176 5.81178 3.87199
1 6.72287 5.80568 6.15589
1 6.41667 1.61049 4.18074
1 2.4096 6.45679 0.345766
1 6.18644 6.38335 2.96713
1 3.1585 2.7349 4.70368
1 1.5903 4.7336 0.148314
1 4.44186 0.611126 2.89915
1 3.14104 0.513709 2.86247
1 0.760979 4.54102 2.00765
1 2.38354 2.15353 4.18029
1 0.935965 0.598748 3.2137
1 3.36133 6.14458 4.28977
1 2.59998 5.17419 6.69906
1 0.691015 0.25903 1.63336
1 6.02958 1.5422 2.63876
1 0.203136 4.11627 2.74816
1 0.90512 1.53628 1.20332
1 0.537617 0.689159 0.673394
1 4.77129 5.34504 5.79569
1 1.49599 4.07034 1.32502
1 5.43879 1.3362 3.56068
1 1.62733 0.582053 0.687127
1 4.6481 3.08271 2.43197
1 0.982202 2.54115 3.93494
1 2.45482 5.70861 4.60553
1 2.34659 4.37916 0.855133
1 2.05023 1.86096 5.72899
1 4.29736 5.59962 3.69893
1 4.63542 3.36558 3.68913
1 0.242243 3.86086 5.77491
1 5.55964 5.72342 5.27219
1 5.46309 4.66878 6.07434
1 1.85422 2.10356 2.2641
1 1.9991 5.8793 2.08242
1 4.77532 5.2085 4.72088
1 5.78563 0.527954 2.79269
1 3.99415 4.10714 1.01088
1 0.0572106 5.20061 1.53459
1 2.77816 6.56843 2.23143
1 1.16279 1.81809 3.25132
1 6.69803 2.64433 4.07017
1 5.44719 5.73035 1.31123
1 4.93569 1.53037 2.65076
1 1.8773 1.74706 0.192987
1 1.30568 3.91147 6.14069
1 3.56163 1.7345 4.29857
1 4.97793 5.12726 2.41104
1 3.30097 2.74883 6.19228
1 2.12237 4.73417 1.90615
1 0.122131 1.83142 3.16224
1 5.35868 1.17228 4.69733
1 3.01483 6.69931 5.08706
1 4.46347 4.30842 4.10977
1 3.78308 6.57702 6.09405
1 0.3266 3.50708 3.65405
1 6.19452 5.03641 4.33116
1 0.312492 4.57467 3.95789
1 2.86352 2.28055 0.432845
1 0.668841 1.63234 5.89012
1 1.63494 2.20091 4.84319
1 4.65595 4.18561 5.66824
1 5.56121 6.74107 5.25916
1 3.51787 3.75726 4.01526
1 5.15314 5.00603 3.63337
1 3.7082 0.610918 4.80174
1 1.93236 5.91377 6.1896
1 0.388194 2.09688 4.85231
1 0.86701 2.89309 2.96278
1 3.1917 2.62456 3.63889
1 4.26433 3.52131 4.71082
1 0.183498 4.07587 1.27218
1 2.49923 0.708587 5.60157
1 5.1724 0.364209 3.91687
1 0.451385 5.16806 5.24294
1 2.6606 6.53186 3.38902
1 0.978978 5.87865 5.92981
1 6.56509 6.55395 1.99577
1 0.808229 3.10879 0.987144
1 4.59004 1.01402 1.79434
1 5.3953 2.51633 2.89708
1 6.1472 3.46936 2.0328
1 6.71014 0.788837 3.52265
1 6.64799 1.30901 1.44811
1 6.18606 4.10571 3.71601
1 4.3281 2.4926 4.41643
1 2.40071 1.11578 4.6482
1 0.558733 3.36097 2.1253
1 5.12128 1.03778 0.768961
1 4.99379 2.97509 5.31807
1 4.06274 3.23411 1.62299
1 0.781725 1.78148 0.123009
1 0.488155 2.37692 2.16934
1 4.08015 2.69323 5.46964
1 5.85216 1.87034 0.927727
1 2.87392 1.48127 6.30589
1 1.57959 2.95558 5.64065
1 1.54833 6.44412 1.28049
1 2.18521 5.57522 3.30366
1 1.23598 4.32854 5.13415
1 2.26766 3.88527 6.6012
1 3.31557 5.0917 4.44399
1 4.27291 1.65694 5.09872
1 6.60898 3.84407 4.72281
1 6.28539 4.81736 5.46995
1 1.50491 5.39925 4.89542
1 2.31912 4.72948 5.12791
1 2.66405 6.66594 6.22486
1 0.834127 6.27357 4.94843
1 2.40055 0.778848 6.76207
1 3.33825 3.30443 0.461295
1 4.81202 0.730698 5.41649
1 4.74605 6.33872 5.76031
1 3.42102 0.366151 0.039517
1 3.91078 1.75619 2.39512
1 4.08261 2.58053 0.243703
1 2.49788 3.75235 3.59692
1 4.60176 6.60968 4.73867
1 3.62023 0.773018 5.82877
1 6.22892 0.222899 0.260478
1 5.55787 2.84608 0.25364
1 4.44955 4.20303 1.96827
1 1.24727 5.18014 1.37795
1 2.976 5.76892 5.67271
1 2.55726 2.77571 5.49849
1 4.37641 1.20014 4.04148
1 4.07595 3.73506 6.38631
1 1.55156 6.71546 6.55258
1 3.77393 4.58964 5.1439
1 1.66827 4.08108 4.23693
1 1.44416 5.23922 2.58216
1 1.14979 2.73499 6.58212
1 0.827499 3.99073 0.479729
1 4.72342 0.0995886 1.18797
1 1.92423 6.67725 5.41156
1 5.57438 5.91692 4.06091
