256
Atoms. Timestep: 100000
1 2.68059 0.249311 4.09703
1 2.87981 4.78539 5.68243
1 5.12608 4.45884 5.61747
1 3.95538 0.123077 3.30614
1 2.37488 4.42834 2.87193
1 1.12155 4.69181 2.71791
1 5.78139 0.324503 6.77309
1 6.25986 6.44681 1.11297
1 4.94636 6.74636 3.17481
1 5.75463 4.92414 2.97136
1 0.563529 6.20166 0.681594
1 3.83083 5.52985 6.66552
1 5.58863 0.148732 4.07717
1 4.12947 6.67603 6.37545
1 2.58921 1.13943 0.898673
1 1.57977 4.60885 0.972149
1 3.04043 6.64955 6.09081
1 6.70758 0.618278 5.09002
1 4.65605 0.997033 2.84687
1 4.34543 2.72984 5.32931
1 1.73202 1.01313 1.61424
1 4.06533 6.22254 2.48185
1 3.96279 1.84655 2.12403
1 0.72952 2.34381 0.617905
1 4.5858 0.684916 3.86706
1 1.10081 3.58301 1.14868
1 2.64239 2.14964 5.01242
1 3.62189 3.94436 1.32469
1 4.58909 3.00967 4.24719
1 0.843661 1.38326 0.00751429
1 1.66343 1.89002 2.33552
1 4.99265 5.66785 0.184842
1 6.77877 2.53111 1.41279
1 0.0822907 5.61652 2.87141
1 1.16612 6.49973 5.18946
1 3.01316 3.48561 0.778366
1 3.13764 6.12905 0.490624
1 0.807603 3.28271 6.78135
1 3.15873 3.27073 3.18631
1 1.25135 1.03893 3.21057
1 4.95095 4.68269 6.57411
1 4.78763 1.65306 5.22955
1 1.13226 0.321567 0.391254
1 1.91696 6.55478 6.03493
1 5.69184 1.10097 4.73919
1 6.55183 3.18469 0.0307553
1 5.31223 3.28573 2.19025
1 3.07825 6.55436 3.16719
1 1.80091 4.26153 5.60516
1 1.577 5.67937 3.11615
1 4.82887 0.441626 4.90741
1 4.91635 5.31857 4.76736
1 1.97003 4.89959 3.79993
1 1.48825 6.30395 4.17204
1 6.45206 0.604911 2.04581
1 2.43703 6.01028 3.80798
1 6.48147 1.55106 1.61549
1 3.71054 0.794745 2.47254
1 3.82272 5.25608 4.89688
1 4.78718 2.13098 0.485794
1 4.85838 1.80887 6.25741
1 3.1081 3.60354 2.21231
1 4.55604 3.52593 5.89962
1 3.89204 0.995341 5.12541
1 3.12341 1.69195 6.7209
1 2.97346 5.02505 0.275789
1 0.251018 1.77382 3.3795
1 6.6994 4.3314 0.0277097
1 5.60617 4.03745 0.294151
1 6.24677 4.61675 1.2278
1 5.02759 0.627646 5.93843
1 0.0838617 6.27152 2.0218
1 5.99807 4.75745 6.13452
1 0.513346 1.30777 1.02707
1 2.40946 6.1469 4.8581
1 0.412867 2.38584 6.35557
1 6.03864 6.72574 5.7451
1 0.880954 4.885 3.84754
1 2.39113 2.70012 2.65138
1 5.32609 3.01742 0.322747
1 2.02346 6.75246 3.16808
1 0.150242 3.80537 1.19731
1 4.85585 3.68783 1.16205
1 5.1453 1.98131 2.70656
1 6.72003 3.55213 3.332
1 0.408483 2.70639 5.02212
1 5.6653 6.68737 2.33426
1 1.14639 0.419173 6.14921
1 1.80572 5.22155 2.09336
1 5.59111 2.39697 1.69114
1 2.71789 1.57642 2.64096
1 2.94115 2.78851 6.59003
1 3.98839 6.66545 1.14375
1 6.65077 1.51105 6.606
1 1.31678 3.069 4.59975
1 5.4775 2.21797 4.74637
1 2.57364 2.25843 0.703061
1 2.75661 1.38589 4.38195
1 0.246869 2.78042 3.91351
1 5.92171 5.25223 0.349984
1 2.40217 3.56708 5.04102
1 1.4969 5.12253 4.76492
1 4.27744 6.47662 5.37437
1 5.72474 4.63433 4.89807
1 4.10302 3.34216 2.27596
1 2.0656 2.65865 1.61105
1 1.10866 6.18151 2.17282
1 6.58256 4.58662 2.3718
1 2.79517 4.05794 3.8382
1 2.84659 0.175815 1.22452
1 2.15667 2.79042 3.75415
1 3.36745 6.2144 4.52091
1 6.15642 4.47028 3.91177
1 4.01705 2.34947 3.10378
1 5.71683 5.78796 4.23509
1 3.74111 4.24923 2.54877
1 3.6669 0.362212 4.22064
1 4.27847 4.79613 1.90941
1 4.01353 3.09503 0.713008
1 6.47186 3.51748 2.16743
1 4.75023 0.633812 1.28103
1 3.84209 1.34045 3.37724
1 3.75118 1.95009 0.959957
1 0.922309 4.29327 6.78873
1 2.66088 1.77699 1.68201
1 1.05495 6.59351 3.18536
1 4.26338 5.13837 3.90261
1 6.34968 5.98387 6.5091
1 6.72715 5.68446 5.26864
1 4.08624 4.47351 5.74223
1 3.76912 0.993866 1.448
1 5.3858 3.61537 5.05641
1 1.80666 3.9788 4.36579
1 4.09371 3.82039 3.64154
1 0.294317 0.994798 4.00085
1 3.41829 5.68992 5.709
1 3.237 0.189718 5.17712
1 2.20189 6.17604 2.24057
1 5.78163 1.47799 3.63282
1 4.18422 1.01539 0.448818
1 5.05853 5.4948 2.39852
1 1.1583 2.84913 3.35433
1 6.78513 6.52627 3.46385
1 3.58271 3.60856 6.20101
1 4.58846 1.82713 3.99586
1 5.52796 5.59587 5.72751
1 3.58581 5.47153 1.07802
1 5.67394 3.77229 2.97248
1 1.31639 6.14788 6.74975
1 2.11958 0.548776 5.40894
1 2.66279 5.79629 6.41799
1 2.03889 5.52243 5.58679
1 3.10458 2.92334 5.45445
1 4.32056 4.48526 0.808146
1 0.456548 4.68922 5.82673
1 6.70211 3.67058 5.6864
1 2.91422 1.1797 5.84922
1 4.53101 5.42292 5.72246
1 1.50717 3.86646 3.25885
1 5.24474 6.49425 1.2421
1 3.97498 5.20894 2.88413
1 0.208512 2.62781 2.66706
1 3.86042 2.0599 4.73575
1 3.20053 2.67522 1.57544
1 2.20401 6.55633 0.428528
1 5.86193 0.607302 1.02914
1 4.86545 3.18978 3.23867
1 5.26066 6.36068 4.98306
1 1.74627 1.41204 5.90672
1 1.89594 3.65731 2.15894
1 4.5919 6.20374 4.15606
1 2.41115 5.75816 1.31911
1 3.17044 3.06991 4.4299
1 0.798817 3.61774 2.41866
1 5.77277 2.57383 3.44011
1 6.60249 1.83465 5.49781
1 6.54052 3.61256 4.56205
1 5.99142 1.86584 0.711903
1 0.920001 4.43543 1.78795
1 6.56736 6.53288 4.55777
1 3.77765 6.01862 3.57936
1 6.1342 2.9723 5.35983
1 5.87013 6.23007 3.205
1 2.0827 1.71643 0.0507848
1 3.92459 2.63951 6.56689
1 5.60694 4.29034 2.0565
1 2.71642 5.12909 4.64244
1 0.404584 0.593033 2.89011
1 5.09036 4.44789 3.85438
1 3.2222 0.530599 0.0635866
1 3.79067 4.39457 0.000741268
1 0.433557 5.3336 1.8024
1 0.375215 4.84655 0.864406
1 2.00139 2.50398 5.82504
1 5.16461 5.10099 1.27968
1 1.30359 0.421103 2.38625
1 5.68477 3.7272 6.12918
1 5.47261 1.04491 1.9677
1 1.86747 1.49927 4.81201
1 5.09768 6.47791 6.1257
1 3.01799 2.22808 3.71514
1 0.480505 0.281484 1.35755
1 0.44114 5.30284 6.74239
1 1.68425 0.594847 4.15233
1 2.00429 5.54125 0.348832
1 6.03418 1.079 5.83076
1 5.9207 3.53906 1.13178
1 2.89132 5.17979 2.20526
1 1.23753 5.60763 1.12237
1 2.76771 0.843881 3.30523
1 3.57676 2.03614 5.76621
1 1.47425 5.03709 6.4016
1 0.751067 3.82002 4.01249
1 4.84244 0.232507 0.354127
1 0.597037 1.17328 5.77493
1 2.00597 0.653914 6.63074
1 3.21438 6.1341 1.87225
1 0.289265 6.57559 5.7981
1 2.90928 5.21194 3.41631
1 4.62239 0.123144 2.09799
1 1.59975 1.92659 0.983546
1 1.77599 1.87404 3.334
1 3.97477 0.915549 6.21824
1 6.65733 5.41163 3.91425
1 3.42251 4.16786 4.78305
1 0.838583 4.05739 4.98622
1 0.926834 5.57719 5.66333
1 1.01862 2.00474 5.27622
1 4.79542 4.17917 2.78211
1 1.1102 0.844507 4.94755
1 4.45522 5.75877 1.59837
1 4.57826 2.7684 1.54862
1 6.0203 0.66716 3.12217
1 0.288495 0.37536 6.70547
1 4.60106 3.66584 0.0955585
1 1.5795 2.70493 0.0505363
1 6.24111 1.94925 2.70514
1 5.99452 5.66154 1.87357
1 1.04335 1.67529 4.20961
1 0.0993154 4.69992 4.67849
1 2.07581 3.82756 0.260747
1 5.36179 1.22986 0.254824
1 6.58009 1.95274 4.42508
1 5.00256 5.68809 3.33109
1 5.58012 3.47151 4.01141
1 5.8088 2.29542 6.07417
1 4.51003 4.16452 4.68696
1 2.58571 4.54952 1.20446
1 2.45098 3.56187 6.07586
1 1.59508 6.78947 1.46142
1 2.51843 0.526523 2.14849
1 1.14218 3.29761 5.59115
1 0.957087 2.70416 1.80013
1 0.651653 5.7871 4.61747
1 0.691088 1.26791 2.11655
1 4.72098 1.67741 1.47199
