256
Atoms. Timestep: 110000
1 0.982308 6.23329 2.67821
1 2.93123 3.18874 4.84756
1 5.26882 4.88515 3.10293
1 5.09124 0.254872 1.62223
1 0.573799 5.32513 3.02913
1 1.26037 4.34522 2.87101
1 2.22121 6.02691 6.64965
1 6.34967 5.45446 1.59282
1 4.4823 1.12273 2.73823
1 6.68049 1.0722 3.05872
1 2.08152 0.212144 0.941742
1 3.54343 4.94951 1.50117
1 4.92705 6.694 2.79005
1 4.63323 6.60002 6.328
1 1.18174 2.12311 1.55832
1 0.252955 2.03855 5.6472
1 4.32323 6.51617 0.571378
1 5.56427 1.6912 3.91306
1 3.75429 1.67609 2.18188
1 5.41275 0.15182 5.54152
1 1.42819 1.40093 2.5781
1 4.52418 4.21868 3.03792
1 6.03915 1.20167 6.49171
1 0.389929 2.33479 0.864353
1 3.67518 0.177623 4.1732
1 3.67891 4.26018 0.629079
1 2.36463 1.41436 6.11913
1 1.1566 3.14067 3.15697
1 0.638513 2.49143 4.54008
1 0.239764 1.42326 0.11188
1 1.05394 3.11529 1.09457
1 5.2859 6.44191 0.306282
1 0.680526 4.12496 0.349662
1 0.860015 5.26403 0.938681
1 3.20215 1.85531 4.37221
1 2.81448 4.31185 5.57777
1 1.44337 6.12726 0.994667
1 2.88073 2.5256 5.61701
1 1.52575 3.32857 4.69192
1 1.72811 0.344223 2.65823
1 5.75919 5.08748 4.09904
1 4.25918 1.28199 4.85727
1 0.571497 0.412784 2.50455
1 3.37749 0.33915 6.36246
1 6.51643 6.63118 5.23298
1 0.00497333 3.2664 0.189823
1 3.46106 3.36396 3.10068
1 0.924301 0.993508 3.46543
1 0.602753 3.50271 4.04516
1 2.69917 0.157749 3.57186
1 4.42816 4.82379 5.0456
1 5.3806 3.2818 4.26803
1 0.0195141 5.55526 5.38849
1 2.50903 0.476324 4.54577
1 1.61244 2.21078 0.584816
1 2.80059 3.96299 3.79401
1 0.420291 1.39735 1.92175
1 2.11989 3.0114 0.66909
1 2.93436 5.40523 5.341
1 4.81299 3.4876 0.211649
1 0.432851 0.286068 0.318714
1 0.760721 4.51296 4.15927
1 2.56754 5.47616 4.12583
1 5.24895 0.351011 3.71614
1 6.26886 1.87999 0.649482
1 1.64101 5.19568 0.314185
1 0.979338 6.56436 5.51938
1 4.51566 2.95742 6.13422
1 6.22764 3.90816 2.09207
1 6.77448 4.58698 0.944329
1 4.22115 3.66281 4.95309
1 6.46429 2.85609 3.96896
1 6.24621 4.673 5.7399
1 6.81963 0.904233 1.09017
1 0.815247 5.35562 4.73232
1 4.59864 1.94716 5.81966
1 1.24741 6.55552 6.6179
1 5.83223 3.75349 5.41929
1 2.50072 3.30956 2.02227
1 5.33385 2.67366 6.75693
1 2.07535 6.34018 4.45602
1 0.0962309 4.03688 2.973
1 2.25221 4.90592 3.26527
1 3.69049 2.30777 6.43621
1 5.60853 1.98613 5.99233
1 6.64038 3.0616 2.99167
1 0.053207 6.44622 1.93145
1 3.15215 0.580134 5.38585
1 1.71663 5.24004 2.21948
1 4.37656 1.91064 1.47422
1 5.07502 1.21747 1.74375
1 2.81386 0.82972 1.49857
1 5.26544 5.55074 1.42703
1 1.25285 0.750773 6.48432
1 0.887976 1.13598 5.42081
1 5.1103 3.01515 5.20086
1 2.71924 3.36494 6.48439
1 4.73783 0.244343 4.66155
1 5.62606 3.00622 2.12104
1 6.72424 0.534536 6.16441
1 1.34995 2.29351 3.65245
1 2.15318 4.92395 6.13447
1 0.0735734 1.89128 3.60497
1 6.56275 2.95501 5.70239
1 2.48409 1.5699 2.78246
1 0.942393 4.55406 1.7222
1 6.06119 2.98467 0.746348
1 3.47741 3.70176 1.90554
1 0.685102 2.3585 2.59238
1 2.74466 5.56826 2.30934
1 1.46554 6.7436 3.58866
1 4.11809 0.703492 1.6719
1 6.47988 4.84386 4.7125
1 4.16405 2.4071 3.26979
1 5.82886 5.79146 5.0749
1 3.25541 6.12987 3.69667
1 4.06751 0.240944 3.20183
1 6.49825 4.94558 3.45351
1 4.51299 3.9381 5.93569
1 5.53868 2.59473 3.27205
1 6.30018 1.863 2.42221
1 4.56053 1.43953 3.98059
1 5.82326 6.15171 2.1196
1 3.75353 3.35006 0.0273123
1 4.94611 2.1645 2.34429
1 4.85674 5.619 2.4225
1 4.03516 6.47559 5.26191
1 0.641237 3.97408 5.10523
1 0.640133 5.51479 1.92761
1 2.69317 4.37244 0.23543
1 6.065 6.68245 1.07488
1 4.43352 0.708141 5.81192
1 6.52118 5.99936 4.1634
1 3.96895 5.83087 4.32558
1 0.095819 1.56008 4.64447
1 4.72114 4.63506 1.15128
1 6.07363 6.20532 6.09247
1 3.37372 0.628437 2.54495
1 4.62002 2.46532 4.45202
1 3.26629 6.21055 0.315075
1 3.26465 6.12974 1.42102
1 1.52806 3.53547 2.09758
1 5.56688 1.09679 2.94704
1 1.07058 4.45902 6.24271
1 1.74592 4.12268 3.83023
1 0.209484 6.14891 6.21337
1 2.24413 6.03336 3.1374
1 4.63949 3.3159 3.48199
1 3.38613 0.582644 0.539311
1 4.00686 1.24327 6.71277
1 6.35594 4.48038 6.76395
1 1.58906 4.57106 5.3385
1 2.30959 4.05521 4.70704
1 0.522178 5.26242 0.0160608
1 1.4937 0.326758 4.7159
1 6.52614 2.30816 6.52256
1 3.52779 1.5759 5.71212
1 6.34875 5.97914 0.312057
1 0.807237 3.10655 5.74552
1 1.0677 1.12577 0.747964
1 3.88282 3.90017 3.92072
1 4.85746 3.96413 1.94421
1 3.4772 2.84748 4.01786
1 2.37319 1.19043 3.80177
1 5.06893 0.740953 6.55808
1 2.02108 0.645267 5.509
1 3.09712 2.55041 2.67494
1 5.60519 3.69007 3.03825
1 2.15048 3.44179 5.62043
1 2.24538 4.34948 1.80584
1 6.48921 0.603257 3.93334
1 3.13924 6.473 2.70119
1 2.07922 3.16945 3.80804
1 6.73482 3.48186 1.29797
1 2.54008 2.2436 3.56771
1 6.20715 1.13909 5.36356
1 0.177213 3.89781 6.18245
1 4.49184 2.42885 0.414516
1 1.68299 3.96199 0.924785
1 2.62478 1.4602 5.14692
1 3.835 5.5506 2.67746
1 4.97856 5.71651 4.43384
1 4.3294 6.40613 2.01972
1 2.77697 2.26013 0.205308
1 4.41483 5.02692 3.88779
1 4.3095 3.1632 2.24827
1 6.53587 6.04463 3.00924
1 5.63765 6.64814 4.47726
1 4.85343 5.90264 5.45948
1 3.36091 1.57655 0.927166
1 4.28916 4.8018 2.14353
1 1.38069 5.6771 3.74079
1 1.0601 3.09404 6.79508
1 1.36659 2.24658 5.44379
1 1.11613 0.261836 1.51301
1 5.63684 4.86358 2.10981
1 4.63401 5.21325 6.13864
1 5.42326 2.27452 1.37801
1 1.24649 1.4592 4.49908
1 5.82092 5.08328 0.770025
1 2.15436 2.29305 4.57627
1 1.71231 1.10727 1.64929
1 1.75347 3.80196 6.68127
1 0.34111 6.67079 3.45955
1 3.60857 4.35158 6.37433
1 1.86212 2.60765 6.40402
1 5.93855 3.60637 6.49671
1 3.36349 5.03281 3.54045
1 2.28661 5.32574 1.34652
1 3.44329 1.49095 3.19123
1 3.82696 2.33497 5.13749
1 2.40123 6.46056 5.68626
1 5.5473 0.878772 4.55211
1 3.1219 5.2402 0.617812
1 0.336384 0.511192 4.75302
1 5.19132 1.677 0.20459
1 3.16627 4.52315 2.56238
1 1.92902 5.67496 5.21901
1 0.708116 6.38565 4.3895
1 4.65451 0.676606 0.784324
1 6.59267 2.56586 1.62437
1 0.415637 3.30328 2.12436
1 3.677 5.85911 6.08442
1 6.69846 5.00819 2.40133
1 5.43052 4.86621 5.14656
1 1.12169 1.92062 6.42077
1 1.23428 5.47818 6.00533
1 2.99587 6.22216 4.79991
1 5.0879 4.2934 4.05201
1 2.28651 0.266723 6.66611
1 4.04033 5.10854 0.297946
1 2.2172 3.82689 2.91538
1 6.11059 0.106111 2.76342
1 1.95159 6.31153 1.88852
1 2.83049 3.85543 1.02343
1 2.28855 1.15572 0.642647
1 5.72195 1.0704 0.984857
1 0.359508 6.20645 0.980879
1 6.09648 2.1731 4.90243
1 5.6543 6.03472 3.59331
1 2.10679 2.45381 1.66226
1 4.92569 4.55928 0.203454
1 5.20962 1.7294 4.98091
1 3.37625 4.71844 4.63616
1 4.24812 3.2294 1.16866
1 5.75053 3.97395 0.925377
1 5.6422 5.34383 6.50448
1 1.79591 4.90892 4.40347
1 3.57571 3.34309 5.70645
1 3.12641 2.75341 1.22056
1 4.17804 5.69001 1.30064
1 6.36685 4.00156 3.90357
1 1.95118 2.66031 2.66949
1 4.50487 5.93523 3.44493
1 6.2491 0.502133 1.82372
1 6.07163 0.237777 0.0584767
