256
Atoms. Timestep: 120000
1 1.87503 4.59469 3.50112
1 2.81767 4.32128 0.25864
1 6.08353 2.305 1.28635
1 5.84677 1.5509 0.27201
1 3.45113 3.56722 4.87386
1 1.78372 3.88722 2.74753
1 3.43345 0.0497661 5.53174
1 5.90468 4.8937 3.48626
1 5.12704 2.29512 3.78401
1 0.989178 2.61372 3.71752
1 1.71823 6.34629 0.711378
1 4.26673 5.15695 1.4577
1 4.30258 3.18234 1.54151
1 6.32144 0.722419 5.15804
1 5.11825 1.33946 6.38541
1 6.51586 2.64728 4.37677
1 4.36664 2.5902 0.797282
1 5.75769 1.27003 3.3396
1 2.8247 1.95678 2.3673
1 6.78387 6.50154 4.77668
1 1.89911 0.0525795 4.79258
1 4.34415 4.06899 4.12268
1 6.33234 5.89507 5.46796
1 1.46406 2.56737 0.950603
1 3.58495 0.218776 3.74851
1 4.55929 3.66493 0.294964
1 6.40588 3.75759 0.403872
1 1.35261 1.07631 5.00975
1 0.956891 6.42598 4.33707
1 5.24887 1.01563 0.932375
1 0.61987 2.30916 6.27687
1 4.2609 0.944956 6.0091
1 0.546169 0.302898 6.65271
1 6.22577 5.26968 6.6768
1 3.7013 2.36367 3.39847
1 3.04521 4.75463 1.77273
1 6.07099 0.219706 1.49425
1 0.913402 3.20103 5.67719
1 1.10628 5.20789 6.15946
1 2.00024 5.42892 1.45281
1 0.461753 5.59009 3.77258
1 2.98571 6.12612 6.16928
1 1.07861 0.361948 0.978121
1 2.56645 0.650704 6.67942
1 6.32204 0.309754 4.0161
1 0.178052 3.33555 3.23659
1 2.60366 1.51496 5.08634
1 1.8779 5.4925 3.12149
1 3.66194 4.09181 6.40777
1 2.90797 0.0261317 4.54007
1 5.38643 5.56158 4.37553
1 5.91133 4.46048 6.31948
1 4.01481 5.71624 6.65045
1 3.45238 2.6929 5.37058
1 1.25464 1.24214 1.45708
1 4.5486 3.05731 5.02002
1 0.56452 1.66163 0.259345
1 2.20119 1.27854 2.82938
1 3.90342 2.91547 6.38818
1 3.29471 5.5047 1.16162
1 6.29627 1.24839 1.34753
1 2.96036 5.17976 3.2465
1 4.97624 0.354388 4.01731
1 3.17715 0.626958 2.64543
1 6.41795 1.97254 6.2328
1 1.64071 0.268193 6.76331
1 2.02358 1.22634 6.01598
1 4.28722 1.19565 3.72495
1 4.66 5.08236 3.73485
1 0.43291 4.36633 6.45576
1 0.348547 4.31242 3.9656
1 6.67641 4.50012 2.83066
1 4.63309 5.72801 5.56273
1 0.23041 0.489127 1.56905
1 1.74215 5.98002 6.4522
1 0.400845 1.59718 5.19283
1 6.34339 6.52932 0.118993
1 0.809357 3.87338 2.45606
1 3.30985 1.34243 3.32994
1 3.22307 5.06263 6.40607
1 0.421117 5.63018 4.86078
1 5.59726 3.05005 1.98824
1 2.53949 5.63042 2.3572
1 3.44243 1.34576 6.71087
1 6.13394 2.21365 3.38561
1 0.53888 0.672689 4.46948
1 1.60011 3.63752 1.73402
1 5.72049 1.44879 5.58483
1 2.134 4.74787 2.26302
1 5.45364 1.90201 2.45627
1 4.5893 1.68415 0.324829
1 2.42088 1.42239 1.56434
1 5.60253 0.558229 6.74324
1 1.24027 4.20817 5.70758
1 0.438421 3.5623 4.66922
1 6.54345 1.31768 4.27755
1 2.4583 2.92289 0.833975
1 5.12302 6.75476 2.50177
1 0.24548 4.19715 1.3998
1 0.853475 2.47977 4.8093
1 6.65972 5.67827 2.89822
1 1.28726 0.12077 5.65973
1 6.56864 0.623649 2.52197
1 1.10747 3.73246 3.54123
1 0.350735 1.48116 2.11062
1 5.29084 3.33725 4.1663
1 5.26737 6.25889 1.42538
1 3.70947 3.11806 2.49469
1 1.4225 0.427516 3.55527
1 4.82593 4.92952 2.63398
1 2.49452 0.457706 3.5037
1 5.45135 3.31754 0.908422
1 1.43313 5.21422 0.396329
1 3.72088 1.78895 4.30841
1 4.2868 4.96855 4.75855
1 1.94931 6.45707 1.6521
1 2.04578 6.16022 3.86621
1 0.986068 2.648 2.37714
1 5.51288 3.82686 5.52851
1 3.46841 1.32953 1.79788
1 4.74572 2.63038 2.70809
1 2.8445 1.15122 4.22689
1 4.19118 0.438538 2.68193
1 3.81543 2.23453 2.00896
1 2.90192 6.27271 3.15247
1 4.36587 6.06077 4.42839
1 2.68177 6.34075 0.888392
1 1.81843 2.56067 4.53402
1 0.0343151 4.8578 0.722728
1 3.76253 3.95444 1.95258
1 1.35589 5.78587 2.12698
1 6.40092 6.78501 5.90821
1 1.39516 5.24674 4.31125
1 3.97141 4.33609 3.10807
1 1.18694 0.389574 2.30073
1 4.29653 4.76969 0.095743
1 0.554516 6.07883 5.86082
1 4.72709 0.181954 4.98835
1 4.52901 1.41263 4.98672
1 0.796423 6.07518 0.25157
1 1.96186 2.44873 2.92554
1 3.74998 5.1151 2.39213
1 0.232341 0.855038 3.48436
1 1.2448 4.18855 0.572903
1 6.53832 3.57213 2.13928
1 4.85935 4.42006 6.09714
1 4.13304 5.92156 3.19063
1 5.74325 6.73065 5.01678
1 4.33738 6.72633 6.27139
1 4.51969 2.05844 5.78852
1 6.80339 5.0574 5.81167
1 0.972989 4.81343 1.82136
1 2.78567 2.83547 4.5046
1 5.37199 6.40889 0.456215
1 2.0121 6.715 2.72261
1 6.76599 2.6792 5.49511
1 2.15848 3.18906 5.41408
1 3.10539 2.2911 0.13542
1 0.807367 4.59189 4.89894
1 0.0733139 6.40711 1.06593
1 1.47482 3.68441 4.5827
1 5.62374 4.37276 2.31423
1 2.74261 2.19637 3.66687
1 1.08512 1.28931 2.88647
1 6.50715 0.639644 0.57992
1 1.05524 1.14478 6.11942
1 4.71583 1.79327 1.61747
1 2.72543 3.1436 2.97371
1 2.70027 3.7508 1.80796
1 3.07359 2.27358 1.26233
1 1.18846 6.23723 3.19911
1 4.19839 0.660421 0.513723
1 2.56345 5.07292 4.29769
1 5.52371 3.65059 6.76013
1 2.04181 3.16092 3.73196
1 4.83443 3.18075 6.04388
1 5.82198 2.80773 6.00936
1 5.9607 4.23205 1.31044
1 6.49366 2.47901 2.15332
1 4.46686 4.02191 5.12127
1 5.85451 5.87111 2.11961
1 5.12856 4.07892 3.2433
1 1.77443 3.3556 6.40919
1 2.79722 3.09647 6.30439
1 4.32963 3.25942 3.39887
1 4.4561 1.42754 2.58632
1 5.31878 5.72858 3.11524
1 0.332481 6.3855 2.15214
1 3.39948 0.0490739 0.0503062
1 1.71716 2.13004 1.86272
1 3.87797 6.67574 1.18411
1 6.68891 5.24143 1.81624
1 0.205284 3.17243 1.01346
1 2.73886 4.04885 5.85884
1 0.658367 5.60106 1.22114
1 6.04615 6.59953 3.03395
1 5.74982 4.8905 5.33326
1 5.537 0.84691 2.24879
1 1.8047 2.15132 5.56013
1 4.59333 5.92589 2.21557
1 6.1578 3.71112 4.47387
1 2.24894 1.9411 0.660381
1 0.632755 2.29654 1.37394
1 0.893137 4.97475 2.80169
1 4.79984 4.26659 1.36615
1 1.80588 4.42262 6.51397
1 5.36744 2.47636 4.97766
1 3.00262 4.1646 2.7766
1 3.51166 6.24051 2.16681
1 3.09529 1.02337 5.8265
1 5.53964 1.14214 4.52587
1 1.52819 2.26202 6.7126
1 0.239462 6.6232 3.38641
1 3.67904 0.765777 4.69928
1 0.774205 1.54356 4.09712
1 0.476483 3.3257 6.66181
1 3.19776 4.79866 5.37982
1 2.39571 6.81622 5.75396
1 0.400833 0.38068 5.42909
1 5.15584 2.59412 0.097079
1 6.65703 0.980932 6.35046
1 1.88967 1.67666 3.91802
1 1.85528 4.54919 4.94898
1 5.41768 5.15956 1.53895
1 3.93115 2.88165 4.25962
1 5.52407 4.70241 0.509072
1 6.31858 4.90227 4.51552
1 2.56404 5.91877 5.16574
1 5.29876 4.30775 4.47955
1 5.65244 6.147 6.20302
1 2.62417 5.31662 0.400259
1 3.46849 4.49281 4.0838
1 3.07877 0.975419 0.895944
1 2.1054 4.49604 1.10763
1 3.6658 4.35144 1.01227
1 2.11031 0.465299 0.986364
1 3.6886 5.85061 5.3764
1 4.59752 0.649254 1.68764
1 5.57149 3.16749 3.10135
1 6.30862 5.89468 3.97751
1 3.56556 3.25609 0.604251
1 2.24318 5.07514 5.82517
1 5.39047 0.446558 5.73425
1 2.55377 3.87809 4.3562
1 6.28253 2.72878 0.141205
1 5.15106 5.34817 6.6123
1 4.61113 5.77202 0.652337
1 1.38276 5.74364 5.27913
1 2.7794 2.06931 5.98347
1 4.67307 3.70488 2.29556
1 3.06469 0.275604 1.66117
1 6.54118 3.92068 5.5294
1 3.34219 3.51479 3.77219
1 3.51927 5.4627 4.32335
1 6.06993 5.68546 0.903422
1 1.57658 1.23176 0.362361
