256
Atoms. Timestep: 130000
1 6.60901 4.77494 4.55982
1 3.31302 4.44446 4.80379
1 6.06867 6.72099 1.59434
1 6.23653 2.718 1.02623
1 3.20882 4.20309 3.47813
1 1.38467 3.7003 3.57869
1 3.55417 3.86927 0.048227
1 4.86773 3.85325 3.51272
1 4.55917 2.84878 2.94082
1 0.342829 1.97966 5.30717
1 2.02185 6.11396 1.78681
1 3.21043 5.6862 0.513702
1 3.69795 2.47541 0.830416
1 6.17278 0.574587 5.16804
1 6.28104 6.53821 0.649534
1 6.19801 3.1216 6.71832
1 3.95266 1.47231 0.644723
1 5.72658 1.12632 3.08514
1 4.24467 6.7004 2.05765
1 5.24975 0.46992 4.44471
1 2.78179 6.20173 6.63475
1 4.57334 3.26577 4.29884
1 5.74644 6.33866 5.62846
1 1.08887 1.54078 6.39231
1 2.2777 6.31542 4.06446
1 3.09554 4.15991 5.76841
1 4.79107 4.62436 1.29324
1 3.00049 6.28343 3.30065
1 0.422602 0.853532 5.42827
1 6.49854 2.9077 2.03559
1 0.584221 4.45839 0.227214
1 4.4082 2.15738 1.57337
1 0.11013 5.50208 0.668289
1 0.0264393 1.33159 6.2081
1 2.96129 3.05238 6.74418
1 0.896292 3.86343 1.00266
1 6.32428 2.00479 2.4691
1 2.23884 2.56804 5.29859
1 3.0154 6.48272 5.2295
1 1.11231 5.70713 1.36209
1 1.61211 5.41039 4.17081
1 2.73316 0.934042 0.871794
1 2.86058 4.72918 0.602085
1 3.74491 2.57989 6.01005
1 0.828158 1.51921 3.45029
1 1.41572 2.49834 3.46401
1 1.70117 6.3896 6.45738
1 0.755707 4.47593 3.93288
1 1.5441 4.52587 6.07348
1 3.27316 6.77139 2.30735
1 3.08884 4.3743 2.52059
1 6.69875 3.63013 0.971979
1 4.78333 5.65329 0.88557
1 3.49339 2.2663 4.54547
1 3.73629 1.2375 3.12668
1 4.72326 1.52312 3.07185
1 1.37183 0.599214 5.85181
1 2.59946 1.42674 3.01333
1 3.11137 1.9025 5.45784
1 4.02939 6.48199 0.83975
1 0.397933 2.52923 3.68322
1 0.665168 0.418662 1.92175
1 4.04645 0.537835 0.187153
1 2.22114 6.56169 0.708615
1 5.65205 3.7742 0.528085
1 0.515864 6.69091 5.94483
1 2.05947 5.88776 5.23169
1 5.07037 0.58359 6.70912
1 5.47736 5.50787 3.97069
1 0.246028 4.96201 6.13295
1 0.578223 4.32045 5.30978
1 5.68826 3.47261 4.95518
1 4.98542 6.30069 4.64812
1 3.05881 0.952361 2.28809
1 2.21298 5.43741 6.39539
1 0.424346 3.59285 6.37016
1 6.32028 0.333112 6.34447
1 0.254095 5.21056 1.84501
1 1.06624 6.29242 4.3397
1 4.12659 3.59633 6.01984
1 6.64356 0.609037 4.06717
1 4.99066 4.0748 2.29792
1 4.99627 0.49102 1.92271
1 3.65324 1.2688 6.46477
1 5.53879 2.44641 4.62928
1 1.17312 0.89769 4.65416
1 0.558988 2.88178 1.2304
1 5.82274 1.30826 5.94697
1 6.23613 4.80918 3.55043
1 6.60161 2.5298 4.50553
1 1.07717 1.42616 1.58617
1 4.36547 0.881891 3.89532
1 6.41424 1.55108 0.520132
1 0.805857 5.34836 5.01675
1 1.95225 1.60007 5.61825
1 1.82421 1.39243 3.7646
1 2.21972 1.23402 6.55286
1 0.247024 0.366815 0.411672
1 5.36181 4.86216 0.175973
1 1.7256 0.0813903 4.9296
1 6.16656 6.00885 3.46594
1 0.228989 5.63368 3.91117
1 6.38165 1.84104 3.56817
1 1.77739 2.93394 2.50285
1 1.48893 2.4465 1.45023
1 3.27179 3.12947 5.23883
1 4.53608 4.28624 0.354104
1 3.85268 2.21383 2.35927
1 3.15343 5.4238 5.15198
1 1.52367 2.10187 4.48532
1 3.61545 5.42806 2.95932
1 5.02808 2.6508 0.843224
1 2.13079 5.55328 0.704028
1 2.30658 0.734307 4.44218
1 1.91515 4.74657 3.21114
1 0.970684 6.35256 0.410502
1 1.67898 5.81464 3.21912
1 1.51902 2.39882 0.448939
1 4.03371 1.55682 5.23797
1 5.12539 0.0196824 0.850906
1 4.20058 1.09377 2.16239
1 1.48767 0.399602 3.84098
1 5.0236 5.97631 3.02655
1 5.14192 1.67202 2.14088
1 2.0083 4.26177 2.17529
1 4.67897 0.395277 2.99121
1 3.66902 0.266697 6.01455
1 0.724286 3.02612 5.01135
1 5.85147 5.51712 0.927188
1 3.73405 3.57853 2.71709
1 2.8547 5.62781 2.35916
1 5.83712 0.73475 0.735323
1 6.61726 5.56746 5.39881
1 5.69331 3.70482 1.62694
1 1.38483 5.28767 2.37822
1 2.30947 3.86799 6.65728
1 0.5291 6.5309 3.4202
1 6.06878 2.39182 5.48087
1 4.00575 6.49312 3.51972
1 6.7973 6.03115 6.51511
1 2.47891 0.280921 1.67313
1 4.13962 5.69353 1.91195
1 6.43012 2.90502 3.03945
1 6.02025 5.21472 2.61746
1 6.28708 6.21251 4.61766
1 3.88647 5.99249 5.77364
1 5.68246 6.74009 2.56269
1 4.64389 5.18375 4.88697
1 4.86566 5.69886 5.70625
1 3.1646 0.833218 5.26302
1 1.20262 5.59161 6.02761
1 1.05327 6.36424 2.38666
1 2.3518 2.20477 3.74578
1 6.74312 0.972345 1.26697
1 2.41487 3.3715 3.87866
1 1.61222 3.25829 4.5113
1 2.63671 1.74872 4.60495
1 1.78977 1.39611 0.631704
1 0.47526 3.41379 4.11991
1 0.677611 1.39027 0.568682
1 1.30554 3.52492 1.78599
1 6.07772 3.73744 3.97756
1 3.32786 1.13285 4.19953
1 0.139328 4.04391 3.20643
1 2.16943 1.44077 1.73669
1 6.19637 4.33326 6.68036
1 5.03772 1.69164 0.316919
1 2.70851 2.23663 2.28443
1 1.26383 5.40993 0.225863
1 2.61576 2.67254 0.923016
1 0.877753 0.571503 2.92931
1 0.424109 2.418 0.0220899
1 3.20629 5.21093 3.90457
1 6.22219 4.41979 5.52355
1 2.80681 3.20254 1.84412
1 2.34545 3.81572 5.03307
1 4.5448 2.74954 5.40411
1 6.00266 3.79218 2.86966
1 5.27808 2.75988 2.20299
1 4.10062 4.63625 5.77012
1 0.230881 1.25127 2.44084
1 4.82837 4.00451 5.05282
1 1.58814 4.47615 0.499906
1 1.37647 3.48855 0.223506
1 4.75059 0.983055 1.02718
1 5.49911 2.15532 3.0469
1 5.12939 6.17426 1.88418
1 1.77985 0.777639 2.32767
1 2.37613 0.295722 5.98583
1 0.75414 2.35024 2.2133
1 4.61061 3.53051 1.21489
1 4.22345 4.49112 2.92878
1 5.83961 4.78742 1.72228
1 2.31614 4.77883 5.49427
1 1.64673 0.478647 1.08877
1 5.57243 0.118091 3.56505
1 6.01789 5.35863 6.24154
1 6.01177 0.950329 2.132
1 2.53291 2.24967 6.36477
1 3.87788 4.93472 0.909746
1 4.78021 1.94348 4.01455
1 1.21517 0.507125 0.0498438
1 3.57838 0.526954 1.48662
1 6.59193 0.306182 2.81394
1 3.17306 5.18195 6.20269
1 1.07002 4.62518 1.5567
1 3.51007 2.49087 3.55426
1 2.62673 0.503937 3.50063
1 5.67839 1.6474 1.27404
1 5.25478 2.60661 6.49035
1 5.57957 3.69776 6.11181
1 3.08464 1.89717 0.342517
1 6.58375 1.40077 4.64856
1 4.44968 5.38162 3.79338
1 1.69384 1.89077 2.75201
1 4.15664 5.25412 6.66143
1 5.51505 4.54709 4.30679
1 3.17533 0.102188 0.531346
1 1.48169 2.55827 5.95677
1 4.39054 3.11675 0.178648
1 0.0110466 1.97548 1.47573
1 3.28335 6.60816 4.22692
1 1.07481 4.21961 2.6658
1 4.35543 6.34785 6.71133
1 3.93265 4.24891 1.74695
1 5.22786 4.74333 3.20152
1 6.60289 3.40245 5.26448
1 4.06571 5.93481 4.72596
1 5.24995 1.43135 4.97324
1 6.61597 4.62436 1.06956
1 0.443365 6.47596 1.28911
1 4.28727 4.35072 4.25751
1 3.39517 1.58689 1.6434
1 0.459719 5.08165 3.00343
1 4.99582 5.19842 2.18482
1 2.28214 6.74996 2.70424
1 4.13832 0.475596 4.99596
1 0.109413 6.00167 2.58583
1 0.624966 3.21142 2.82907
1 1.52003 3.57773 5.65631
1 2.12593 3.99342 1.22462
1 5.16552 4.69619 5.81427
1 4.79953 1.38196 6.07429
1 2.7404 3.21462 2.87673
1 0.00275224 3.98196 2.01086
1 5.69364 5.37339 5.01081
1 3.35379 3.463 1.00372
1 2.40362 4.56905 4.23378
1 1.54008 4.47674 4.93315
1 5.54051 3.08477 3.45487
1 3.15972 6.14697 1.44476
1 5.5947 6.15242 6.67107
1 2.70258 5.00749 1.54223
1 3.47234 3.55054 4.25848
1 4.81426 0.044817 5.78002
1 0.261678 6.67763 4.85582
