256
Atoms. Timestep: 140000
1 0.166284 4.02894 4.79634
1 2.66947 5.78054 4.39656
1 0.479482 6.10302 1.68525
1 5.70819 3.53325 0.442512
1 5.55919 3.56074 3.30221
1 4.64081 3.98294 3.63296
1 4.79944 4.81467 0.729268
1 4.27481 3.40832 5.9937
1 4.42794 5.14699 3.03342
1 1.57704 4.86855 3.16301
1 3.18405 5.97194 1.33818
1 2.06072 5.46752 0.829481
1 2.34757 1.4851 2.95115
1 1.87004 0.145985 6.00005
1 5.17283 0.698757 0.584245
1 1.57255 3.96272 6.22598
1 5.51078 0.286178 6.45484
1 6.58329 0.73529 3.43282
1 3.70892 3.15074 2.51687
1 6.2255 6.67849 3.86141
1 3.2302 0.380355 5.66647
1 4.18566 2.36937 3.35532
1 0.814595 3.1169 4.35848
1 6.09942 6.0632 6.66781
1 1.79006 6.38314 0.213825
1 3.55571 4.3425 5.41796
1 5.43828 1.9191 0.255149
1 3.12007 5.04581 3.68258
1 0.241929 2.85624 5.29371
1 5.83812 2.74076 1.17877
1 6.47766 5.96162 0.888961
1 3.84298 2.82339 1.11564
1 5.37653 5.30383 5.34173
1 2.93673 2.44631 6.48342
1 2.94676 2.69752 1.62506
1 6.54655 2.41914 1.85029
1 5.32916 3.31495 5.20302
1 0.472707 3.78253 5.68687
1 2.78428 4.6654 4.73672
1 6.1811 0.358933 0.478621
1 1.15848 5.21795 1.22546
1 4.40014 1.07986 3.44953
1 2.92278 5.19243 5.88666
1 3.53815 1.0194 4.85228
1 2.08066 6.55764 2.54365
1 1.29398 3.95345 4.92795
1 3.13981 1.49303 0.113785
1 3.01846 3.71269 4.53561
1 -0.0338074 5.54726 6.01456
1 1.89032 6.43806 4.73593
1 2.78897 3.59647 2.73967
1 0.226335 3.73102 0.0519326
1 3.14988 6.21629 2.53871
1 3.13683 2.0331 5.43703
1 6.5678 0.455514 1.49088
1 6.72023 6.59347 2.76141
1 2.2041 3.08866 6.62647
1 2.79548 0.12302 1.60902
1 3.94278 2.10443 0.0608433
1 1.68084 6.46687 1.34657
1 4.97449 4.29659 2.59423
1 2.40524 5.56101 1.85773
1 1.31525 0.553204 0.402535
1 1.1979 5.03215 0.140279
1 4.19545 1.14734 0.357386
1 5.97789 2.91244 4.40967
1 0.803686 0.163145 1.36523
1 5.7243 5.17748 0.759788
1 6.48871 5.48558 3.48204
1 2.78136 3.93121 6.19204
1 0.495288 4.37347 3.00433
1 6.24811 3.57985 5.51373
1 4.51792 5.52591 4.09588
1 5.17895 1.39244 5.34123
1 -0.00991465 5.08808 0.265067
1 0.93968 4.6913 5.70164
1 6.29689 5.86591 4.98132
1 5.40577 5.49997 2.70406
1 1.36712 1.15273 6.24234
1 5.37733 4.28349 5.6601
1 0.522263 5.11805 4.82343
1 3.86289 0.550434 2.48057
1 4.92214 6.15502 5.90108
1 3.81783 0.190613 3.52546
1 4.56635 3.75406 0.675707
1 0.362753 1.73319 2.96704
1 6.57763 1.11643 6.65538
1 6.38422 1.84399 0.72135
1 5.37174 3.91357 1.29657
1 5.41302 3.49323 6.23049
1 1.5141 1.47321 1.29116
1 4.82632 1.82899 4.12128
1 6.12004 2.73349 6.47506
1 0.922277 6.13191 6.15448
1 1.35669 3.12743 5.66005
1 0.625344 2.59345 3.34546
1 2.56133 1.79258 1.0288
1 0.524733 0.652536 5.91108
1 3.6038 6.04398 5.84967
1 3.67575 1.28071 5.91011
1 5.61131 6.56654 2.4499
1 1.13854 0.124753 5.31673
1 0.553356 0.727204 2.55897
1 3.4653 5.26103 2.22064
1 1.2777 1.57017 2.45347
1 4.07727 2.39998 5.86624
1 4.36406 5.06333 5.50731
1 1.543 3.35984 3.40231
1 2.06724 4.5492 5.49277
1 1.51042 2.28559 4.08607
1 3.29895 3.99145 3.65969
1 5.12428 5.33459 6.57868
1 1.5467 4.1805 1.6088
1 3.60569 5.97306 3.61239
1 4.52327 3.68386 1.78202
1 5.98495 4.62376 6.61208
1 2.30749 0.573274 3.8091
1 1.98358 1.50025 0.152606
1 6.35538 1.11854 5.58453
1 3.5881 0.375618 6.63866
1 2.5904 0.50075 6.68436
1 2.62252 1.25616 5.87133
1 6.66113 5.22031 2.39674
1 3.73857 1.53486 2.70694
1 2.7898 0.366063 2.87475
1 1.32664 1.2705 3.75529
1 5.3767 0.159174 5.30548
1 2.10413 6.39712 3.58917
1 4.17144 6.05526 2.73141
1 3.70012 3.19584 0.089436
1 2.7449 6.27844 5.35309
1 6.50925 4.62557 5.39432
1 1.19144 2.21308 5.01232
1 4.59925 6.72678 6.72893
1 2.45279 5.5083 3.17192
1 2.99597 3.81317 0.511608
1 1.59692 5.67188 2.47546
1 4.58827 4.32708 6.58551
1 6.114 1.80443 4.30625
1 6.37485 4.30369 0.772748
1 2.19732 0.763379 0.870864
1 2.80518 6.50988 0.574012
1 6.55545 3.125 2.75974
1 0.868683 4.93756 2.23301
1 6.23086 2.18479 3.27128
1 4.32885 0.449712 5.92035
1 3.41306 0.624446 0.897927
1 0.432532 6.3056 4.75885
1 3.90784 6.7074 4.99605
1 0.381475 0.0786614 6.73867
1 0.272807 0.719391 4.2434
1 3.92885 6.5547 1.75737
1 3.03869 2.3377 4.38325
1 0.174105 1.35082 1.89993
1 1.1881 5.92281 4.08458
1 3.36105 3.29834 5.48488
1 4.90077 1.19559 6.40072
1 1.7835 0.619513 1.88437
1 2.53568 3.13627 3.6268
1 0.298843 2.20873 6.39962
1 6.84005 5.09383 1.28242
1 6.21686 4.14062 2.77069
1 5.71885 3.99856 4.31774
1 0.16556 4.25389 1.97152
1 1.39885 0.389761 4.32067
1 5.58132 3.5054 2.24444
1 4.26597 0.775602 1.49377
1 2.9764 1.0915 2.15431
1 0.637129 4.28863 0.787255
1 3.58877 1.66777 1.27387
1 2.58971 4.67447 2.66059
1 0.0247488 2.75833 0.592268
1 0.695643 5.07594 3.66826
1 0.202354 3.54915 3.60666
1 2.08885 1.90814 2.05856
1 4.36232 3.20448 4.86998
1 6.01966 2.10202 5.35725
1 4.64547 3.21407 2.74921
1 3.74206 3.11331 4.05256
1 3.68173 5.73868 4.80172
1 1.67752 3.94833 2.5583
1 3.90545 2.22333 4.85983
1 2.8849 2.73535 0.647402
1 1.03709 2.4351 2.01852
1 5.50715 0.600761 1.73905
1 6.65972 4.49078 3.82387
1 3.84599 6.58804 0.640082
1 0.692739 5.68491 2.91808
1 3.29733 1.14946 3.58358
1 5.41567 0.81491 3.20572
1 3.86461 4.35666 0.769937
1 2.88233 4.82564 1.13573
1 5.22495 2.47765 2.08709
1 1.75373 5.48718 6.20384
1 0.769196 6.13785 0.58936
1 4.59011 0.842598 4.74602
1 5.6999 0.900675 4.33991
1 5.94957 1.42713 2.52509
1 0.745075 1.40585 0.335297
1 4.85312 2.90529 1.12302
1 5.18318 2.46446 5.91783
1 0.38702 1.53312 5.07479
1 5.31031 6.25964 0.744647
1 5.6982 1.61491 1.50813
1 2.43631 4.72043 -0.0581148
1 1.75465 4.14225 0.569792
1 2.9909 2.34099 2.75307
1 2.26615 0.550458 5.08608
1 6.63052 6.64058 5.85956
1 4.72894 2.93013 0.0178273
1 4.35326 5.6814 0.461676
1 4.07503 2.29755 2.03283
1 1.37237 2.20616 6.36254
1 5.52932 4.75662 3.36589
1 1.34434 1.08871 5.13054
1 1.01335 4.15624 3.98297
1 3.99816 4.60693 4.37635
1 1.85729 2.38015 3.09402
1 5.85461 5.06431 4.50034
1 3.06485 3.84946 1.52026
1 1.12777 3.13338 0.0417372
1 2.71515 6.1391 6.44861
1 2.20675 4.21167 3.80306
1 2.1244 3.37944 1.22214
1 3.55517 4.3989 6.59585
1 5.54516 5.93174 3.72716
1 4.93629 4.54572 4.71181
1 4.80287 0.139961 3.73634
1 0.462801 2.01288 4.20433
1 5.6824 4.81029 1.99614
1 4.30305 5.65336 1.58058
1 4.66944 1.77076 1.34405
1 1.50529 0.541551 2.99193
1 1.80159 4.96971 4.41178
1 3.75068 4.35244 2.6646
1 4.73712 1.30303 2.44767
1 3.01883 6.7559 4.43683
1 5.76877 5.81398 1.64591
1 0.816144 3.39264 2.50166
1 2.36236 2.86536 5.43117
1 1.09464 3.22209 1.31947
1 4.31602 4.65249 1.74033
1 2.30856 1.75844 4.66853
1 0.741303 2.17694 1.01285
1 6.48629 3.48299 1.48368
1 0.588109 0.042776 3.57346
1 1.6818 2.48387 0.75507
1 5.12457 2.84561 4.00023
1 6.35786 0.273619 4.96007
1 5.11603 2.01468 3.0704
1 4.78643 0.258907 2.39893
1 3.06041 5.47036 0.345927
1 1.99308 2.98048 2.18642
1 1.84882 3.23773 4.54707
1 4.97536 6.30025 4.74127
1 1.2829 5.63912 5.2768
