256
Atoms. Timestep: 150000
1 5.39224 4.62366 6.44113
1 1.88031 5.37318 3.37263
1 6.4408 2.64874 1.25399
1 4.77079 4.44149 0.789923
1 5.62789 2.2821 3.98404
1 3.29437 3.26831 3.24233
1 4.03357 5.39223 1.25669
1 4.55514 4.43752 4.57924
1 5.96494 4.57473 1.98553
1 0.175936 6.23714 4.02444
1 3.83309 3.75273 1.26328
1 3.19893 4.4925 1.73577
1 3.35315 0.569423 3.31753
1 3.71886 0.873578 5.96396
1 3.82343 0.379155 6.77924
1 0.545838 3.16483 4.75255
1 5.83565 0.571472 5.40498
1 5.85675 1.59581 2.52842
1 3.67446 5.25432 4.24101
1 6.14819 0.428406 3.87085
1 3.2936 1.85944 6.19376
1 5.73507 1.46586 0.493578
1 1.59691 1.00184 4.56101
1 4.6866 5.90616 4.16378
1 1.51952 0.327674 0.196058
1 1.58678 4.79128 4.31343
1 5.45175 1.52965 6.17046
1 2.33018 3.49717 3.84402
1 0.914826 5.16468 5.32557
1 0.324117 4.03757 6.42549
1 6.4701 6.6961 4.80061
1 2.13357 4.37701 1.85982
1 4.6799 5.07421 5.91809
1 2.64167 0.403044 6.23002
1 4.78979 2.83629 1.94103
1 0.0587805 3.24584 5.83278
1 5.9723 3.72226 1.2642
1 6.3027 6.09141 6.78906
1 1.04165 1.00884 2.93596
1 4.07216 1.09211 4.48039
1 0.908064 6.28952 0.535029
1 3.70693 6.64305 5.69212
1 1.07507 4.07405 0.595067
1 4.68453 2.47267 0.110929
1 3.15138 5.53202 3.25338
1 6.7195 5.75823 5.88477
1 5.22094 3.55454 6.73705
1 4.48013 1.25275 3.46587
1 2.36697 6.46318 0.586234
1 0.35577 0.678201 3.85025
1 2.25438 3.4276 5.4187
1 0.286396 5.41391 0.0872915
1 2.57323 5.48811 4.2694
1 3.24506 1.66449 5.0816
1 4.3648 1.68488 6.24742
1 0.236582 1.20103 0.648397
1 1.11063 4.76142 6.37278
1 4.20848 5.1144 0.233973
1 4.50786 1.66623 5.2146
1 1.49465 0.478463 3.67824
1 2.68959 2.50378 1.48887
1 0.95087 5.08848 3.56366
1 2.14073 1.2752 5.41197
1 2.40567 5.06966 2.64456
1 4.6586 0.459523 2.46493
1 6.60125 2.2183 0.261318
1 2.54911 6.79175 1.5399
1 4.32517 4.18666 6.41657
1 5.62382 6.19385 1.91581
1 3.9963 2.70246 5.1644
1 0.350412 5.58098 2.64137
1 2.91811 2.61301 5.53571
1 4.26156 4.94813 3.45852
1 5.07592 6.39894 2.94118
1 0.995609 5.77739 6.16266
1 1.50117 3.63564 4.69926
1 6.50784 5.27425 3.66487
1 4.87406 4.13162 2.97829
1 0.988136 2.00714 0.339789
1 0.0313753 3.38862 0.446717
1 5.76298 6.20406 3.79854
1 6.58846 5.52626 1.60892
1 4.933 5.42712 5.0201
1 1.64594 4.39819 5.33275
1 4.75395 3.38418 0.978291
1 4.85827 0.695076 5.23968
1 2.7235 5.2214 0.5261
1 5.83805 0.29164 6.42267
1 5.22027 3.75143 2.02628
1 2.05667 5.23968 6.07518
1 2.06773 1.22356 1.81478
1 5.58414 0.599487 1.91365
1 2.21231 1.71495 4.51917
1 6.77597 0.0491071 5.79336
1 6.09775 4.10336 5.77041
1 0.0500169 5.1098 4.68922
1 1.15679 3.11444 5.57065
1 1.3203 1.14636 6.30592
1 3.25669 6.26931 6.60864
1 2.09166 1.06875 2.85338
1 0.213777 4.50392 2.02544
1 3.72858 0.0556903 2.10276
1 6.43186 2.89276 2.96138
1 1.55711 6.51461 1.46374
1 4.71965 0.218495 3.68292
1 4.8397 5.38669 2.65847
1 4.11989 5.83132 6.32769
1 6.65396 2.4885 4.01185
1 3.44635 3.75623 5.77898
1 4.19557 0.797354 1.3146
1 4.26844 2.91429 3.40765
1 3.9147 5.6177 5.31177
1 0.487795 0.0837913 2.79068
1 4.52771 6.11902 1.99799
1 4.14261 3.6573 2.5551
1 6.44401 4.82439 6.30102
1 2.55343 2.78652 2.52752
1 0.110997 0.251464 0.129818
1 0.497017 1.66049 4.4263
1 2.4452 2.83161 4.6461
1 2.02333 5.46514 1.45651
1 0.468072 1.9928 1.25667
1 0.0924874 4.55397 0.898535
1 4.92494 2.3091 2.86517
1 3.7847 1.36464 2.75294
1 1.02258 0.0232488 4.48641
1 4.72846 6.40405 5.38692
1 2.20754 6.38885 3.51945
1 5.35452 5.95234 6.38853
1 3.78896 3.54094 0.277131
1 1.58113 5.41028 0.429629
1 5.93274 4.43953 3.07329
1 2.57603 2.5332 3.70088
1 6.58186 1.55153 5.25609
1 2.57335 4.32691 4.76301
1 3.4158 4.46509 0.554988
1 6.56055 6.26825 3.15055
1 4.43185 3.67834 5.41984
1 5.51804 1.82689 4.91923
1 6.44672 3.72914 2.41146
1 1.40636 1.07836 1.01203
1 6.58273 6.4579 2.05231
1 6.1104 3.96926 0.0979666
1 2.72802 6.19615 2.40784
1 2.65551 1.85432 2.39252
1 5.79769 6.26093 5.44896
1 4.31632 1.3021 0.457685
1 1.65605 5.95402 2.39003
1 4.74502 0.544792 6.24278
1 6.40991 1.14731 6.21453
1 6.17321 2.57354 5.16826
1 5.06766 6.73426 0.198219
1 3.7731 2.79812 6.23155
1 1.71039 2.24898 1.51953
1 1.03363 6.22081 3.44171
1 2.85301 3.54451 6.49882
1 4.12464 6.78803 4.60244
1 3.38048 5.46492 2.15844
1 3.4905 3.48976 4.66636
1 0.516667 2.13481 6.02988
1 0.631229 0.355739 1.60963
1 5.77373 2.50134 2.18707
1 6.0923 4.49199 4.21666
1 1.57308 0.159725 2.43607
1 1.23483 2.10952 5.05573
1 4.43813 4.57831 2.01016
1 3.25476 6.36504 4.06261
1 6.25061 1.51274 1.4062
1 6.01423 5.41605 2.69586
1 2.57906 2.59615 0.283715
1 5.43894 4.17952 4.95944
1 0.649982 4.08956 5.48408
1 0.563863 6.09595 5.16749
1 5.15881 3.84172 3.87608
1 2.49354 1.59188 0.979397
1 3.42205 2.24265 2.83404
1 5.44522 3.25302 5.40783
1 6.55351 1.66938 3.43279
1 4.53059 2.10994 4.12972
1 2.69858 6.4808 5.046
1 0.755207 2.9963 3.60004
1 5.45064 0.977633 4.38749
1 1.53202 3.01671 0.758942
1 1.8104 1.99581 2.94444
1 1.02982 2.73773 2.17113
1 5.82115 5.51307 4.53844
1 3.41058 1.76069 0.564758
1 6.7719 1.01829 2.55176
1 2.97192 0.571392 4.56622
1 4.11014 5.97062 3.17003
1 3.51391 4.50267 2.87334
1 2.5391 4.04352 2.8432
1 5.49036 2.68267 0.746831
1 0.897056 5.70055 1.69191
1 0.690057 0.876059 5.37318
1 1.81 0.208434 5.43081
1 5.90898 0.2509 2.82644
1 6.73739 2.12125 2.23047
1 1.67392 2.47472 6.33233
1 0.343401 3.53245 1.5021
1 3.23292 0.143436 0.864459
1 2.67535 0.740633 0.374494
1 2.8573 3.39247 0.90883
1 3.94885 6.29159 0.581212
1 1.27284 4.89709 2.46353
1 1.00078 3.90903 2.27233
1 3.41025 1.51164 1.65628
1 2.80618 5.33114 5.42408
1 2.34337 1.67186 6.55388
1 4.91646 2.49953 5.96857
1 2.1609 4.32922 0.332825
1 3.91531 2.67033 0.886475
1 1.53954 3.69868 6.37333
1 4.03418 3.88749 3.81063
1 1.23701 1.46576 3.78481
1 0.479213 4.24531 4.19878
1 4.61263 3.22417 4.47536
1 3.66068 2.61115 1.90457
1 5.20924 5.21218 3.66212
1 3.14184 3.54305 1.96153
1 1.03489 1.32488 1.93771
1 3.01555 5.89137 1.29596
1 2.91274 4.55076 3.84971
1 1.86621 3.34463 1.82614
1 2.54727 4.39259 6.03474
1 5.90171 5.18659 0.459201
1 5.92582 3.22938 4.30256
1 3.64388 4.53454 5.02516
1 5.34746 6.64601 4.58136
1 5.76407 5.15333 5.48336
1 5.10224 5.15046 1.50075
1 4.98258 5.76686 0.580825
1 4.9994 6.69508 1.24943
1 1.25177 5.74335 4.49377
1 1.51528 4.1938 3.26315
1 5.48416 1.1055 3.36746
1 2.97836 1.51611 3.69111
1 6.07493 6.31608 0.888546
1 2.78126 0.520325 2.33855
1 3.53295 4.98519 6.17902
1 6.59168 3.82462 4.86071
1 0.325935 4.34531 3.05858
1 3.49119 2.46059 4.24655
1 6.50138 3.63117 3.64639
1 5.40938 3.23703 3.05215
1 0.647609 2.16821 3.03468
1 4.56125 1.81474 1.28883
1 5.97355 3.02315 6.25922
1 0.957372 0.0634587 6.17553
1 4.76977 1.4663 2.19354
1 6.47419 0.488265 1.104
1 0.698066 2.94545 6.59063
1 1.57855 2.57831 4.08025
1 1.73563 3.20188 2.96161
1 1.8483 6.01641 5.36634
1 2.05595 6.36082 6.38876
