256
Atoms. Timestep: 160000
1 6.35552 5.48872 6.47708
1 1.24031 4.88933 3.11225
1 6.3221 2.3263 3.82041
1 5.64764 4.48318 1.3607
1 1.29432 1.9882 3.39991
1 4.64975 2.62681 4.01174
1 3.41613 5.47575 6.43563
1 4.65739 4.78087 4.88413
1 5.38188 6.37528 2.83182
1 0.731737 5.14891 4.71779
1 4.11174 5.60901 0.404301
1 1.35762 3.58879 0.136983
1 3.05641 0.410706 2.47159
1 4.26244 5.70483 4.39158
1 2.76907 1.22155 5.56254
1 5.35978 3.9819 4.98129
1 5.14071 6.37225 3.97587
1 6.43131 0.656133 0.678468
1 3.36597 5.31869 4.39861
1 1.39125 6.13325 2.11099
1 1.66672 1.5134 0.621706
1 5.91764 3.47268 0.970393
1 2.06573 0.842919 4.61072
1 6.14758 4.12669 2.70257
1 1.23739 0.559684 0.360033
1 6.39623 5.49214 4.24578
1 3.68793 6.53491 5.26733
1 3.96297 5.64534 2.71396
1 2.21458 6.23685 6.77867
1 5.70183 2.3714 1.07999
1 0.270584 0.40663 3.3372
1 3.00958 4.41836 6.43992
1 4.57244 0.289836 5.84147
1 1.91377 6.08222 5.70263
1 5.52738 5.23292 2.39898
1 5.11388 4.99351 0.593867
1 4.11819 3.37774 1.8806
1 4.53912 1.64828 3.89316
1 2.76611 2.03256 2.19965
1 3.12789 0.585676 4.84618
1 1.01878 4.6702 0.821283
1 3.94597 6.36792 6.41073
1 1.75063 1.10811 1.61038
1 5.0836 6.76159 4.93734
1 4.58623 6.13347 2.12614
1 0.245831 5.35081 0.516043
1 3.7413 4.40186 5.48001
1 5.54688 1.88696 2.41565
1 2.27687 0.340163 0.519179
1 1.1879 0.944613 3.45903
1 3.33498 3.41254 5.92146
1 5.96165 5.39822 0.768555
1 0.659097 3.97485 3.23093
1 3.75577 1.42171 4.78936
1 2.10006 0.579243 6.02422
1 5.61603 1.24421 1.50331
1 0.31001 3.53889 6.5252
1 4.30023 4.89756 6.48661
1 0.560611 5.89062 3.94107
1 1.56186 1.74869 4.39073
1 3.40344 2.79721 2.88514
1 3.8959 6.28286 3.65394
1 1.43696 3.19147 4.67869
1 3.16074 6.17358 0.330397
1 3.25026 1.32632 2.93207
1 6.77162 2.63058 0.250418
1 4.33625 6.64883 0.667062
1 3.48852 2.04157 6.02482
1 6.18296 0.302622 3.69379
1 2.56949 6.48004 4.85254
1 6.35707 5.77414 1.94082
1 4.31518 1.4363 5.8581
1 1.6318 5.95229 3.32691
1 3.33971 0.27196 3.75297
1 1.32965 6.31377 0.77531
1 6.43668 3.03477 4.7373
1 6.37568 4.51165 4.58228
1 3.05675 6.12468 2.2265
1 2.93902 3.36599 4.87769
1 6.39 1.44408 6.41483
1 4.80329 5.52396 3.3362
1 1.58119 3.73638 1.12298
1 6.47682 1.18722 4.24625
1 0.962303 3.89704 5.87146
1 2.69784 4.30512 4.21393
1 1.03674 6.70967 2.84264
1 4.90008 5.83235 6.19239
1 6.24113 6.47438 0.262085
1 4.61601 2.30909 0.959185
1 1.55988 2.31323 5.3488
1 2.22085 6.64088 1.67001
1 6.05455 3.35645 6.76083
1 6.7103 3.57038 3.92436
1 1.23516 4.60251 6.63394
1 5.4306 5.00116 6.33299
1 5.84128 5.01153 5.29835
1 0.641731 2.97033 5.37211
1 0.399621 1.91978 6.02104
1 2.05002 4.13262 6.20457
1 1.90388 5.58433 1.4544
1 0.363595 6.01672 1.34257
1 5.28376 0.42812 0.939365
1 0.209803 1.69586 3.35914
1 2.42106 6.52564 2.90994
1 5.30343 0.921764 4.27142
1 5.2137 5.83084 1.39625
1 2.28956 5.29704 4.51846
1 5.92894 2.27194 5.36448
1 3.49558 0.601308 6.04036
1 4.24826 2.08106 3.02659
1 4.6351 4.68053 2.60153
1 1.45287 4.94138 5.71394
1 2.06635 5.20969 0.353929
1 4.08717 5.38744 1.64493
1 4.4552 3.17198 3.04228
1 0.0974644 0.179873 1.47992
1 2.00888 3.29333 2.0211
1 0.290348 5.72844 5.33306
1 6.60639 2.82411 6.01177
1 2.48003 2.04249 6.29392
1 3.54217 4.27522 1.60969
1 2.67183 2.44424 5.30823
1 6.07225 2.9448 2.2773
1 5.57352 3.10682 3.87677
1 2.43522 2.19906 3.42678
1 0.31996 2.32739 4.48065
1 5.26797 0.681662 2.78083
1 2.76709 5.71767 3.45673
1 5.22102 6.09655 0.330203
1 4.51565 0.831678 6.78326
1 3.34912 0.598699 0.633752
1 5.89471 4.10012 5.96758
1 2.42225 2.90307 4.17076
1 1.23254 1.10538 5.32158
1 0.970074 5.18153 1.9088
1 5.07596 2.6946 2.02029
1 0.598051 5.64854 2.75982
1 3.02224 5.39723 5.47341
1 0.949854 3.08618 1.78405
1 6.61669 3.70394 1.78646
1 1.43174 2.51227 6.60663
1 6.52124 6.58206 2.66624
1 0.215759 4.56362 6.62719
1 2.19497 0.204403 3.82382
1 4.27417 3.40982 4.83734
1 5.87847 6.28296 5.73979
1 5.4087 1.40245 0.401146
1 2.15321 4.52325 1.39893
1 4.03098 5.4379 5.60596
1 4.33427 2.74784 5.80146
1 4.73077 3.0831 6.76323
1 5.45756 0.352878 6.73558
1 0.0962976 0.990323 5.29101
1 5.29623 2.14237 3.39093
1 0.264397 4.86284 3.62631
1 2.91695 3.37467 0.177179
1 1.42627 4.75209 4.15679
1 5.72172 4.25632 3.57903
1 0.23385 4.77974 5.63413
1 1.85225 3.24099 5.73165
1 0.452728 1.09977 1.10416
1 5.52 1.89612 4.39945
1 1.51339 1.46553 6.30848
1 3.33966 6.66744 1.39578
1 1.73388 3.82813 3.71453
1 5.06875 3.76991 2.33139
1 0.810159 5.65035 6.51532
1 0.741362 4.02142 2.11797
1 1.69064 0.850748 2.55282
1 2.09063 2.95115 0.67426
1 3.92846 4.27336 0.432079
1 0.353912 3.72083 0.916708
1 1.21409 0.0600495 6.13401
1 6.10148 4.4027 0.34344
1 1.07486 0.0163695 4.03197
1 5.39725 1.54322 5.77953
1 3.66965 2.50433 4.79063
1 5.80055 2.29622 6.53526
1 6.01169 1.50062 3.30242
1 0.593494 4.04926 4.55278
1 2.69883 1.73442 4.36839
1 6.7494 0.127962 4.55998
1 1.1385 2.65818 0.852627
1 6.51722 1.65103 1.87881
1 0.631081 2.09485 2.38552
1 0.911175 0.194866 4.96327
1 3.64543 2.62086 0.249655
1 0.654025 1.10125 2.51639
1 1.36977 5.97951 4.80334
1 5.19203 4.01403 6.72261
1 5.07265 5.70388 5.20553
1 2.30474 4.66989 3.42041
1 4.79743 1.97688 6.64605
1 2.75692 2.14095 0.788478
1 5.91953 0.453083 5.32345
1 5.96857 6.31111 4.64675
1 6.02005 5.31409 3.31018
1 4.22955 1.04387 2.92781
1 6.49063 1.76066 0.683919
1 0.669801 1.70691 0.275592
1 4.43108 1.1934 0.963446
1 4.67912 1.44485 1.90633
1 2.61381 3.97095 2.37946
1 3.11618 4.90355 0.588442
1 3.05565 5.66893 1.30281
1 0.0851106 4.76539 2.57986
1 2.90359 2.8472 1.68564
1 2.70373 4.34247 5.4343
1 3.92234 2.39382 2.01935
1 0.700353 1.09174 4.31262
1 2.25836 5.28354 6.19686
1 3.5849 1.57108 0.208357
1 0.0105091 2.68722 1.39987
1 5.20072 2.93736 4.81871
1 0.865062 2.97988 3.80101
1 5.48383 5.02334 4.28919
1 5.43284 3.14157 5.80116
1 1.60496 4.03734 2.71679
1 4.7929 1.96366 5.09872
1 3.71797 3.14555 3.80226
1 2.72256 1.21588 1.1815
1 2.81377 6.55263 5.91813
1 2.87717 3.71037 3.43503
1 2.68785 3.6859 1.19923
1 2.17115 4.23901 0.38081
1 6.66936 4.63961 1.22497
1 4.73675 4.17162 5.73485
1 1.62796 4.17408 5.00358
1 3.71955 3.94337 2.63978
1 0.142761 0.0185902 5.92776
1 4.60807 0.408539 1.84542
1 6.17151 0.649159 2.26942
1 3.55566 1.2598 1.8218
1 3.21461 4.99249 2.30999
1 2.08859 3.09533 3.01084
1 5.57463 6.69065 1.82627
1 4.16226 0.389514 4.61677
1 4.10634 0.00179546 2.74361
1 3.41238 2.08047 3.75988
1 3.7225 4.22272 4.39334
1 4.67813 3.95495 4.06395
1 2.24415 5.25613 2.46401
1 4.50424 0.369319 3.69918
1 6.71736 3.80908 5.40738
1 0.322209 3.03373 2.69772
1 1.62076 2.19095 2.46972
1 3.55995 3.32504 0.970316
1 4.49571 4.37727 1.27283
1 2.73419 1.17541 6.74452
1 2.34286 1.13447 3.36866
1 0.504506 0.867553 6.58881
1 4.72094 3.31283 1.09004
1 3.37747 4.78151 3.40291
1 1.99714 2.38216 1.54602
1 0.503721 6.55103 0.225634
1 1.07586 1.95519 1.52381
