256
Atoms. Timestep: 170000
1 5.53297 4.60303 0.457928
1 0.454216 5.37475 2.72295
1 3.74785 1.98135 3.44568
1 4.3009 6.39712 0.603116
1 2.05107 1.16477 3.69041
1 4.19825 2.39224 4.37623
1 2.94457 6.74057 1.77559
1 6.59335 3.94223 4.33419
1 6.52629 4.41583 3.13548
1 6.65443 6.36876 2.75158
1 5.68148 5.6195 0.28016
1 2.15432 2.91938 6.22893
1 3.88853 0.94698 1.8345
1 6.35558 4.79986 1.02852
1 2.36207 6.73928 4.75119
1 0.783703 5.56996 4.03996
1 0.255406 0.538315 2.86482
1 6.52049 0.595135 1.87797
1 0.430032 4.85279 4.75015
1 4.85025 1.80937 3.92225
1 0.883761 1.76548 0.38167
1 6.68476 3.91068 0.362059
1 5.06382 6.34479 6.52762
1 6.35456 3.08143 2.6413
1 0.999994 6.00628 5.83026
1 1.28532 6.50899 4.73636
1 2.86085 6.21483 6.22916
1 5.32868 0.921416 2.11317
1 1.94762 6.40947 0.149397
1 5.70661 2.43353 2.19259
1 1.13051 0.7274 4.16308
1 2.56003 5.40942 0.677436
1 3.85032 1.40056 0.453406
1 1.8456 4.55454 6.37115
1 0.778841 6.23862 1.68691
1 3.46062 5.85947 1.23037
1 3.99147 3.45063 1.66019
1 3.13018 0.984003 3.71955
1 1.23276 1.55603 1.63973
1 5.65208 6.09112 3.05358
1 1.23176 2.59549 1.3994
1 2.97443 0.633853 6.73055
1 1.1512 0.105822 6.62554
1 5.36972 0.694687 5.67893
1 4.94783 5.88216 5.51989
1 2.93064 3.59679 1.43983
1 5.10648 2.5529 5.34079
1 5.15949 0.142573 3.53049
1 0.377088 1.10713 1.07504
1 0.775196 1.59303 2.63888
1 6.14445 2.85428 4.8399
1 6.47153 3.96609 2.09715
1 5.42863 3.55093 1.94461
1 4.02613 2.42388 0.385764
1 4.72358 4.98077 4.09362
1 4.5794 1.63751 2.47352
1 6.78362 2.80187 0.1937
1 5.05694 4.75587 5.15593
1 0.877675 0.465653 5.36332
1 4.24178 3.40537 4.85936
1 2.87434 5.84453 2.7557
1 0.319677 5.05117 5.75383
1 1.37376 3.62228 3.48773
1 1.70747 0.891617 0.266699
1 2.25495 0.761892 1.99089
1 0.0164481 0.985505 6.77125
1 3.5702 0.362325 1.00053
1 2.95741 4.34103 0.233154
1 6.06918 4.90783 4.30062
1 2.59099 5.59549 4.51802
1 0.904516 4.71432 0.712271
1 6.16506 1.68816 1.5398
1 3.06025 4.10404 2.42304
1 3.99429 5.78242 2.36011
1 6.56774 1.43005 2.45021
1 5.62161 4.05621 4.57469
1 0.569744 3.29389 2.23108
1 3.6674 0.0930942 2.49849
1 6.51352 5.67722 3.54183
1 5.74952 0.700007 4.29903
1 4.64424 2.77108 2.21639
1 1.74225 2.06252 5.47307
1 4.14518 0.953567 5.58433
1 0.188078 3.73775 5.66163
1 3.99743 4.95824 4.81164
1 0.589609 6.66019 3.86135
1 5.84091 5.4007 5.9833
1 0.0311093 6.10736 6.15235
1 2.32189 3.26543 0.504525
1 1.92172 4.46534 4.43967
1 1.48702 2.67786 2.63897
1 3.44297 2.75301 1.09775
1 5.30631 3.764 2.91095
1 1.2428 2.77064 0.338659
1 6.18502 5.71748 4.94134
1 1.21206 4.47564 5.41833
1 6.44704 2.17187 3.11663
1 6.74532 1.68641 4.57421
1 1.60261 3.68223 5.98186
1 6.52474 6.0104 1.77868
1 5.49019 1.68341 3.06048
1 4.4561 5.55325 1.37011
1 0.277635 2.30812 2.12045
1 2.59579 0.110356 2.87754
1 3.72438 0.0756566 6.34968
1 4.0814 4.30861 6.71858
1 1.46022 5.46912 4.8222
1 1.19162 3.01351 5.22051
1 4.20103 5.24407 5.90006
1 4.23224 0.978628 3.33178
1 5.70774 5.6353 1.35807
1 3.06148 4.55918 4.88972
1 1.00887 6.38129 2.79691
1 2.88461 6.35969 0.470928
1 2.0117 3.81235 2.39196
1 5.88871 2.11829 4.04414
1 1.51793 4.60632 3.0884
1 6.27203 4.69893 5.31415
1 6.53613 1.2445 5.47357
1 4.64456 3.37867 -0.0126869
1 2.70612 4.56405 1.57381
1 4.67915 1.88853 6.16901
1 5.65776 3.58715 6.73431
1 5.61055 4.69706 3.23069
1 3.43689 1.15704 4.76282
1 0.218594 3.56673 3.3918
1 3.03874 1.52813 1.49448
1 3.46538 5.45441 3.9705
1 1.10295 0.30271 1.11272
1 2.57664 0.492348 0.836501
1 4.55255 0.537294 0.0342998
1 0.745837 1.60168 5.10912
1 4.19456 3.08116 3.54814
1 3.66403 6.07999 5.47752
1 0.652249 4.32965 2.54131
1 3.82613 4.42414 1.05654
1 3.54681 6.78239 4.58334
1 6.18886 4.49063 6.32629
1 1.68609 2.02564 3.3861
1 0.588657 3.94896 1.29293
1 2.67789 1.65227 5.24774
1 1.43525 0.720725 2.97908
1 4.57628 4.46396 2.10113
1 1.73308 0.925412 5.06641
1 4.58827 4.81777 3.06396
1 4.64774 0.124911 1.60365
1 0.0241557 6.56673 0.4802
1 1.33822 3.77491 0.351811
1 3.82035 4.10404 5.55989
1 2.78129 1.49147 0.486958
1 3.55357 5.7283 0.0347203
1 4.87884 1.00537 1.05839
1 2.05607 1.96968 4.45771
1 3.42818 2.04223 2.23995
1 2.71537 3.68049 3.36326
1 0.578449 4.52618 3.74768
1 2.54359 4.89128 3.64309
1 5.01884 2.69655 3.23734
1 2.27603 3.53292 4.84693
1 2.65258 2.76264 5.43638
1 6.67625 3.15552 1.42412
1 5.95386 3.23082 3.81633
1 1.22883 1.21279 6.11068
1 2.44182 5.66416 1.75223
1 1.14649 2.86893 4.12396
1 5.65418 4.55664 1.85676
1 2.17879 4.84551 5.47724
1 2.40275 4.94123 2.59147
1 3.08714 1.01204 2.6201
1 3.95395 2.84187 6.00875
1 0.171768 5.67484 0.897657
1 0.391384 1.88924 6.27848
1 0.83575 4.42648 6.42591
1 5.81392 3.72337 1.06749
1 2.34125 2.85994 4.20738
1 6.13732 0.74434 0.775532
1 4.53196 5.87091 3.34316
1 4.71109 2.91165 1.08301
1 0.894355 1.7157 4.05723
1 0.0815787 2.68577 4.13961
1 3.40412 1.6328 6.25651
1 6.05412 6.78428 5.32585
1 0.0420502 2.24415 0.988481
1 0.174949 0.671172 4.41178
1 6.15335 1.93215 0.23622
1 2.05767 5.60419 6.09194
1 2.94765 2.52676 0.0676467
1 1.93636 0.0536922 3.84807
1 4.28424 6.00205 4.54882
1 4.83776 3.5707 5.66237
1 1.28957 5.50501 6.73094
1 4.11161 -0.0204576 3.50311
1 4.90221 1.82848 0.399053
1 3.20665 3.47704 4.48024
1 5.93205 0.106589 6.36085
1 1.0057 6.18946 0.629464
1 4.73903 6.73806 2.65614
1 6.3227 6.81101 3.84015
1 5.35218 6.70793 0.811278
1 5.1303 1.9663 1.44475
1 2.10569 1.8463 6.58131
1 2.41857 2.5381 1.46724
1 1.48129 5.50881 2.30613
1 0.592488 5.13444 1.72309
1 1.73755 6.67523 2.10522
1 3.51165 5.04311 1.892
1 3.69846 3.46926 0.503065
1 3.03736 5.00949 6.16124
1 2.29781 1.81047 2.30275
1 3.7226 2.06458 5.42745
1 0.119408 5.10266 0.0813264
1 4.12734 2.1034 1.40202
1 5.07446 3.08189 4.33837
1 2.74985 0.603419 5.53254
1 0.918076 3.80245 4.42728
1 6.29148 5.22038 2.48148
1 5.91283 1.85527 5.94608
1 1.64541 4.61405 1.77924
1 5.4119 2.69785 6.31923
1 2.69253 3.02182 2.37265
1 1.93046 1.97756 0.830203
1 1.64933 5.49278 1.10303
1 3.4785 4.85908 2.94594
1 0.622961 3.43355 6.47799
1 6.70879 2.65034 5.83732
1 5.1399 4.57044 6.20659
1 5.94106 3.68734 5.64523
1 2.58797 3.98731 5.95334
1 5.72569 6.484 2.02661
1 -0.00194754 0.346121 5.9798
1 4.65224 0.835867 4.42941
1 6.55595 1.16754 3.65843
1 2.00496 6.43354 1.21026
1 1.88712 5.9162 3.42711
1 3.12747 2.12254 4.18789
1 0.326902 6.11316 5.03749
1 3.65193 2.9449 2.58496
1 5.21664 5.48798 2.28715
1 4.68704 1.67607 5.10569
1 5.26461 6.55061 4.66959
1 4.61893 4.01096 3.80286
1 5.95328 0.434752 2.782
1 5.39569 5.72152 4.11882
1 5.75396 1.56854 4.98299
1 0.665318 2.49174 3.29336
1 0.91959 0.686934 2.00886
1 3.53435 4.17082 3.81803
1 4.55214 5.47879 0.0204249
1 1.87797 6.76218 5.68228
1 2.92742 6.31244 3.72334
1 5.43546 1.24855 6.62536
1 4.07811 3.85862 2.87216
1 4.74627 4.04769 0.835856
1 1.65524 3.56365 1.43571
1 1.93623 4.51049 0.746679
1 5.82491 2.70328 0.867779
