256
Atoms. Timestep: 180000
1 0.961661 5.60961 6.27485
1 0.305405 6.36583 2.07646
1 5.04584 1.2147 1.91167
1 3.84345 4.05249 6.77116
1 1.38408 0.617344 3.49454
1 4.00579 1.85515 5.46499
1 4.19791 0.22591 2.61868
1 1.22447 3.18617 5.1339
1 5.61872 4.63802 2.4783
1 5.41525 0.264477 3.8521
1 5.28188 0.937571 6.80765
1 5.01782 1.72297 5.81683
1 3.39386 0.755596 5.70772
1 6.53451 5.74926 1.13055
1 2.22904 5.06972 3.99611
1 2.10794 5.69842 4.70715
1 1.46682 0.742218 2.36014
1 0.99405 6.41752 2.98791
1 1.67478 2.92199 0.688317
1 2.78196 3.30537 4.95808
1 0.42481 1.66182 2.30167
1 6.59217 3.99714 0.730773
1 3.41054 0.396419 4.75007
1 5.02374 2.37252 3.56035
1 6.57004 5.71728 4.55684
1 2.40995 6.75849 3.16101
1 2.74744 0.767854 6.57742
1 4.56154 4.35856 2.43636
1 2.71418 6.56735 6.30994
1 4.92137 2.91847 2.47587
1 1.02943 5.53207 2.56165
1 1.5951 5.01691 5.49971
1 5.3045 2.68177 0.181643
1 0.348348 4.98081 5.04716
1 0.267882 4.77608 6.14144
1 2.60385 2.78977 1.90272
1 1.89582 4.56545 6.48901
1 2.26409 1.7674 2.25408
1 0.304967 2.24095 1.38875
1 1.83718 3.30695 4.36212
1 2.49855 5.56298 6.0308
1 0.644202 6.38029 0.247907
1 5.15317 0.280767 1.18934
1 3.12135 5.4133 4.58579
1 5.48185 0.372814 5.88203
1 2.31525 0.0557116 2.19351
1 6.75071 3.80158 6.25162
1 0.742701 6.25997 4.1216
1 6.06178 6.45275 1.66824
1 1.79491 6.0098 3.60909
1 5.48671 4.34892 4.7188
1 4.42631 3.7268 3.26772
1 6.19766 5.47515 2.1992
1 3.35499 2.69512 6.04842
1 5.95841 5.13302 3.38607
1 4.37192 1.98161 1.26075
1 5.38049 5.98012 0.781809
1 6.54635 6.57922 3.93308
1 6.48514 0.840685 6.19379
1 3.41818 1.42004 4.6873
1 2.39985 1.42062 4.46236
1 6.18565 4.76029 0.0131563
1 1.30109 3.22854 3.35938
1 2.33821 6.17475 1.39698
1 3.1275 2.55065 2.82745
1 0.994024 2.23709 0.65203
1 2.34243 5.61182 0.335577
1 0.65075 4.2209 0.165003
1 0.314904 2.77042 0.0163832
1 2.44756 0.501668 5.30589
1 1.66667 4.23851 0.611768
1 6.16097 2.58367 6.29824
1 3.47977 0.95694 0.775028
1 3.54644 4.22619 5.19381
1 6.19562 0.261677 2.87375
1 5.5223 3.66964 3.14171
1 6.5259 3.89359 1.81021
1 5.14629 0.999036 2.88085
1 6.63089 4.66841 2.80917
1 4.51726 0.819909 4.30079
1 3.67819 3.70729 0.967022
1 0.480203 2.37707 4.57305
1 2.59993 0.547724 4.04955
1 5.80093 3.26659 4.09521
1 5.50085 5.91878 6.09614
1 0.0380448 5.9388 2.97937
1 4.18753 5.17371 0.272628
1 1.27824 5.15515 3.54214
1 2.01181 1.17302 0.334228
1 6.5657 4.14105 5.21043
1 0.12367 0.562078 2.06377
1 2.72156 4.18412 0.29455
1 4.36284 3.46898 1.71921
1 0.788837 5.69867 1.21563
1 0.54119 3.92483 4.58284
1 0.719107 4.37641 1.29789
1 0.80563 0.545479 4.39994
1 6.24892 1.28556 3.01621
1 2.24259 2.91925 6.26436
1 4.07578 5.88607 2.6705
1 4.22097 5.54342 1.32141
1 2.13445 2.50337 3.72509
1 0.483273 2.83947 2.85642
1 4.20504 6.61402 1.54734
1 5.88635 6.53639 4.6827
1 5.13695 2.85167 5.8743
1 2.72162 5.62393 3.19955
1 0.210464 0.966242 5.20543
1 4.04034 0.808787 6.70899
1 4.37788 1.98181 2.36749
1 6.1037 2.81157 0.874349
1 3.04558 3.92524 6.08928
1 0.77851 4.3712 2.52212
1 1.57402 3.12883 1.64987
1 1.49187 1.65434 1.51024
1 5.60665 1.42167 3.85325
1 2.84108 4.43361 3.30733
1 1.17163 5.29404 4.52515
1 6.32659 1.86642 5.3883
1 5.11705 5.13441 6.57476
1 2.60826 1.54065 1.0706
1 4.28424 2.65208 6.38972
1 0.243098 5.12151 3.67324
1 6.14011 2.73716 2.16767
1 5.62448 1.07667 5.08018
1 6.52781 3.53995 2.93866
1 2.61169 0.180045 0.723712
1 4.71895 5.4426 3.42506
1 1.56836 6.58714 0.791627
1 2.99692 0.89353 1.76269
1 5.75488 1.83265 0.818725
1 0.282202 1.80451 6.23962
1 2.71092 3.98004 2.29253
1 3.73112 6.63394 5.90154
1 0.529939 3.22979 1.98949
1 5.69041 5.56283 5.05346
1 5.50286 6.00749 3.9251
1 2.6346 4.72451 5.45051
1 2.90932 1.7054 3.4659
1 5.86353 4.81648 5.72474
1 1.97173 0.616182 1.46737
1 1.66364 6.73485 4.30652
1 3.73047 2.96563 4.85167
1 2.0469 3.82199 5.55377
1 5.17641 5.93253 1.93378
1 4.07012 4.57254 3.8084
1 0.457168 6.76187 1.14976
1 0.40565 1.24128 1.35673
1 0.421689 3.07997 3.89206
1 3.44734 5.87404 0.0325317
1 3.68005 6.81921 0.353919
1 6.26306 1.46106 1.99776
1 0.948419 0.202951 5.77212
1 3.57224 2.71699 1.5571
1 3.36468 3.37318 3.72015
1 0.531709 4.14279 3.50839
1 1.77814 4.10702 3.71784
1 4.07091 2.61732 3.30519
1 3.06988 3.21744 0.140272
1 4.60287 1.83926 0.278971
1 5.49496 3.77959 2.0527
1 4.53899 1.86785 4.41017
1 1.1365 0.798477 0.704204
1 2.99213 6.2704 5.36711
1 0.361543 1.46239 3.9335
1 4.85643 6.66371 0.0995597
1 2.73249 6.21161 4.13227
1 1.63212 2.6752 2.58032
1 4.62831 6.48827 3.61617
1 4.69634 5.59427 4.76256
1 6.05379 0.190635 0.386972
1 5.8432 3.671 0.0162667
1 1.27323 2.39038 6.44684
1 4.80471 3.6694 0.0501586
1 3.1303 2.52006 4.2553
1 6.04445 0.793412 1.22879
1 5.16105 4.60632 3.57724
1 3.51438 2.22303 0.645864
1 0.356034 0.449684 3.35146
1 6.30092 2.24361 4.29492
1 3.62381 1.74209 6.48895
1 1.59347 0.149052 6.64913
1 5.20937 3.49785 1.08158
1 6.60069 6.68905 6.33228
1 5.36826 4.42189 0.560989
1 0.728529 5.86255 5.37369
1 2.03405 4.34306 1.59853
1 1.85141 1.59561 6.01506
1 6.14982 5.77051 0.12107
1 6.39618 4.36285 4.0135
1 1.9052 6.47009 5.56081
1 3.26492 6.61455 2.60796
1 5.92653 1.6537 6.52025
1 4.46058 4.48081 5.85692
1 0.176522 0.857482 0.233367
1 6.59783 5.6961 5.94148
1 5.24543 0.178797 2.22548
1 0.335527 5.33931 0.366435
1 6.74079 1.90849 0.477403
1 4.41572 4.29428 1.12474
1 0.96411 1.06629 6.34864
1 1.64244 3.73498 2.43264
1 3.04439 5.34566 2.18631
1 2.84981 4.83848 1.12978
1 1.33836 6.49207 1.92135
1 1.98015 4.82213 2.90825
1 1.45595 3.58543 6.71128
1 3.36305 5.00863 6.4282
1 2.6163 3.58381 1.17998
1 2.83804 1.83508 5.62048
1 1.70757 5.28599 1.3992
1 5.29993 2.52162 1.60441
1 3.91784 1.27989 3.22878
1 2.39043 2.1555 0.117474
1 2.04259 2.36866 5.21178
1 5.10441 4.96552 1.52728
1 5.47012 2.46284 4.88054
1 3.33226 6.02332 1.102
1 5.26476 3.83948 5.91386
1 3.53122 4.28906 1.88721
1 0.753252 3.40612 0.930463
1 1.37135 5.26779 0.415897
1 3.67329 5.68898 3.72313
1 0.129347 4.89943 1.82195
1 6.25143 2.56178 3.21758
1 6.0014 4.72916 1.25818
1 0.338935 2.71607 5.68899
1 1.02561 4.14594 5.67018
1 3.98461 0.779695 1.80758
1 1.37574 1.03773 5.13758
1 6.38911 0.740706 4.30458
1 5.44369 1.96674 2.70376
1 3.33635 1.79722 2.09246
1 3.81419 5.37158 5.33801
1 1.46866 2.00449 4.35542
1 2.03886 5.86123 2.3351
1 3.66934 3.46267 2.52635
1 4.69591 3.82236 5.06185
1 4.47785 3.27531 4.22732
1 4.36705 0.700431 5.5102
1 4.30649 5.70675 6.15862
1 5.63021 6.1992 2.96323
1 4.79613 6.71277 4.62087
1 0.0620565 6.67083 5.07094
1 0.94699 1.87896 3.1824
1 2.94368 0.880465 2.88368
1 1.83847 4.45808 4.67473
1 4.60252 1.07543 0.945841
1 1.01985 2.06061 5.44404
1 3.61091 0.274355 3.58628
1 6.07687 3.30538 5.28601
1 2.82976 4.25001 4.36912
1 3.65737 5.02803 2.947
1 2.43287 3.39357 3.1169
1 4.04982 3.51573 5.8343
1 4.37359 2.94717 0.776271
