256
Atoms. Timestep: 190000
1 1.65326 1.7376 0.627944
1 4.27808 6.49155 3.76854
1 5.36514 5.29249 2.33709
1 4.91935 2.76487 5.65039
1 3.22482 1.83832 4.44793
1 4.46103 3.10305 4.46026
1 4.38181 2.10791 3.72979
1 0.928156 3.18081 1.23624
1 5.30695 4.14217 2.27546
1 3.52597 0.579875 1.91853
1 5.96898 2.78152 6.42646
1 2.55679 2.95889 3.20139
1 2.17215 6.24448 0.215543
1 0.263452 5.29339 1.48785
1 3.08707 4.81762 4.55502
1 3.22258 2.46827 2.29244
1 1.9894 6.01187 1.34327
1 2.61794 1.55272 2.92353
1 2.60704 0.858355 1.78242
1 5.71423 6.71667 5.35176
1 2.16193 2.02073 3.91138
1 5.1889 2.77541 3.52025
1 3.05064 0.67615 6.60599
1 0.019197 1.91897 6.46754
1 6.32009 6.02731 5.78414
1 2.89199 4.18773 3.25187
1 1.18613 0.252836 3.80743
1 2.18003 4.5136 2.43278
1 0.654483 2.07323 3.47495
1 3.64788 3.98134 4.47872
1 0.0408265 6.70951 1.21365
1 2.56707 1.98332 1.16266
1 6.11163 1.13396 0.0800878
1 6.36629 2.75824 5.47005
1 5.73448 5.15058 5.75017
1 5.97682 4.98093 4.29677
1 1.79702 2.71205 1.06012
1 6.01746 6.51881 0.176398
1 6.02973 1.69893 1.99572
1 3.12154 1.19631 5.44426
1 2.3982 6.54824 2.30916
1 0.624711 4.09384 6.72318
1 3.71438 5.15048 1.43151
1 1.55217 4.17381 4.71974
1 0.0154159 4.77521 6.16313
1 3.11041 5.76875 2.00038
1 5.79787 3.9712 6.71995
1 0.891447 1.58726 4.30981
1 0.057223 6.70662 4.06312
1 1.39944 6.59559 2.74549
1 5.14554 4.58631 4.95001
1 0.229905 5.10696 4.28542
1 0.413389 0.9685 6.16802
1 0.838724 0.969302 1.31479
1 0.335275 4.76495 3.24548
1 0.254043 0.36067 0.177873
1 3.42211 3.25045 0.380179
1 4.88689 6.65005 4.80547
1 6.70325 1.01026 4.11728
1 4.17209 3.96691 2.50078
1 4.25756 2.44723 6.47417
1 5.34974 6.19944 0.940482
1 6.28253 1.92345 3.41107
1 4.70362 5.717 5.30556
1 5.45002 3.85743 4.27684
1 6.06571 6.76522 2.81165
1 1.398 5.01921 3.2027
1 1.22729 3.52823 6.2007
1 6.64677 0.74729 1.90569
1 3.07937 2.32965 6.0824
1 1.72044 6.26488 5.72334
1 5.63595 3.12884 1.91096
1 4.15155 0.577507 6.30406
1 3.98766 5.75542 4.41604
1 5.71032 0.574828 4.41123
1 4.99046 3.24684 6.58328
1 6.39106 4.23987 3.76269
1 5.90943 0.415767 1.25661
1 6.16213 5.52708 3.06445
1 5.57622 0.773201 2.20441
1 3.3803 1.59331 1.61006
1 2.5459 2.49702 0.312918
1 0.575248 4.05372 4.28418
1 5.90048 2.71943 4.23456
1 3.8557 4.50631 6.28885
1 5.00082 0.21256 3.07287
1 5.63376 5.13058 0.311101
1 0.946042 6.24018 1.3723
1 2.67651 6.0956 6.07548
1 2.79367 5.76672 4.15829
1 0.599945 1.02538 3.37215
1 2.98248 3.95902 6.32016
1 3.30342 4.87277 2.58085
1 1.7116 4.87017 1.52257
1 2.30376 5.40066 4.98187
1 6.76918 2.59686 1.73899
1 1.28091 0.435815 5.73486
1 4.54646 3.7863 3.64241
1 0.323398 2.35186 0.728462
1 5.04878 5.94831 3.23194
1 2.50752 3.43222 0.843318
1 0.435612 5.8064 3.52758
1 0.247252 6.69424 3.10477
1 4.79125 4.16544 1.34482
1 0.0935261 6.75338 5.21985
1 6.43378 3.73461 5.94416
1 2.93217 6.61189 1.2926
1 0.607317 1.45099 0.381848
1 3.37263 6.49869 0.180105
1 5.12825 2.36656 1.56472
1 6.42339 4.71296 2.26297
1 4.94691 4.24815 6.05138
1 6.61769 5.98742 2.15694
1 6.5372 1.32254 1.0099
1 1.46534 3.16557 4.10001
1 3.78291 6.37448 2.39749
1 1.10622 4.30583 2.14576
1 0.909919 4.67338 5.51488
1 6.07149 1.79995 4.6257
1 4.46246 3.01913 0.651049
1 0.439839 2.61286 4.49288
1 2.84771 2.99869 5.27885
1 6.69981 3.73513 2.54111
1 4.97596 2.22821 4.6233
1 4.7828 0.213528 1.63023
1 1.50344 2.28256 4.72285
1 2.12268 0.28784 6.36535
1 5.26705 4.85202 3.24887
1 1.39665 1.49039 5.30571
1 1.78372 1.56806 1.7053
1 2.2094 5.02251 0.688673
1 6.76135 3.54802 0.71098
1 1.86666 5.48391 2.43037
1 3.324 5.85324 5.18315
1 0.0821828 1.88029 2.50881
1 5.37816 6.09034 6.19472
1 4.58187 5.96273 1.939
1 1.48799 5.59711 6.4653
1 3.85548 2.5358 5.20224
1 4.53204 6.26915 0.307916
1 0.935009 1.2616 2.41023
1 1.93635 0.606472 4.99351
1 5.45634 3.72946 5.36297
1 3.31396 2.82231 1.3206
1 6.29132 0.917769 5.16522
1 2.18398 4.92935 3.97458
1 1.41684 2.4553 2.92951
1 0.748439 6.45373 6.19495
1 0.564958 3.58292 5.15772
1 2.35572 6.49918 4.76138
1 4.22979 1.503 4.58078
1 5.26865 1.19903 1.06468
1 3.17374 0.0565845 5.6162
1 3.52628 2.08116 0.366773
1 3.48323 4.91239 3.67628
1 0.87966 3.82733 3.15651
1 2.77199 2.79346 4.23738
1 2.99451 3.59189 2.34735
1 4.44641 1.82564 5.51666
1 4.9373 1.29657 2.98144
1 6.42136 3.44538 4.66424
1 3.98477 4.58725 5.26653
1 2.12477 0.658111 0.657174
1 2.70795 0.925756 4.20882
1 1.7597 0.300642 1.66357
1 0.10202 5.77299 0.0687541
1 2.43639 0.018985 3.63091
1 0.815704 5.57292 2.31491
1 2.98199 0.415152 2.74959
1 4.69478 0.679293 3.97601
1 5.79327 6.45798 3.75508
1 4.7616 5.11833 1.07085
1 1.23013 0.100556 0.699772
1 6.14205 2.37488 0.965823
1 3.50977 3.32472 3.62684
1 2.55834 1.5726 0.166929
1 3.96524 5.65871 3.06437
1 4.70483 0.644465 0.393523
1 1.7555 1.13143 3.9966
1 4.22022 2.91942 2.80394
1 4.32362 1.77305 0.9574
1 2.3374 1.88314 5.18245
1 5.65102 3.27486 0.751292
1 5.36991 0.5814 6.21126
1 4.81693 4.32166 0.245262
1 6.62576 4.52999 5.16946
1 3.04416 5.0018 5.78051
1 2.16408 1.27359 6.02704
1 0.580356 5.69023 5.37341
1 1.26283 5.30029 4.78914
1 1.21244 6.69928 4.77784
1 4.33204 5.06182 2.38706
1 5.22795 1.28409 5.08506
1 5.26332 2.13541 0.364337
1 0.590632 0.828931 4.86401
1 6.47241 0.241397 6.17269
1 6.1101 2.77681 2.70869
1 0.0179084 4.85418 0.526852
1 5.05262 2.25783 2.56164
1 4.11351 2.2749 1.94344
1 1.20401 1.77534 6.29639
1 6.74492 3.02463 3.56738
1 2.76337 5.1134 6.7436
1 3.5851 3.84708 1.54661
1 5.97951 5.41016 1.36953
1 1.86294 5.92288 3.912
1 1.94329 3.73002 1.71391
1 2.40471 4.23257 5.28354
1 0.958391 2.06036 1.69433
1 1.88987 0.670364 2.73116
1 1.35484 0.824369 6.70113
1 5.76205 3.6875 3.27993
1 3.5976 1.52322 2.61894
1 0.678948 0.229953 2.08886
1 1.87755 3.98402 0.0588456
1 4.46192 3.18204 1.73947
1 4.77154 5.17693 6.37949
1 3.35263 4.41655 0.619025
1 4.8095 1.47103 6.46058
1 0.805234 3.24126 2.30432
1 2.02696 4.7075 6.09653
1 1.34113 4.07171 1.00032
1 2.74046 5.54873 3.0344
1 5.89703 4.30568 1.1847
1 1.75326 3.38495 2.62055
1 5.63212 6.26193 2.00766
1 0.311446 3.88001 1.59681
1 4.09049 3.47572 5.72107
1 0.990544 5.42442 0.587174
1 3.62516 1.23292 3.65986
1 0.826409 2.48146 5.50918
1 0.11334 1.78298 5.25303
1 4.22854 6.4244 5.93237
1 3.46144 0.23141 4.10097
1 1.80589 2.41352 5.85429
1 3.0648 5.6894 0.742467
1 1.91323 3.96087 3.4622
1 4.50714 4.74544 4.01411
1 0.369251 2.92942 6.30723
1 5.29174 1.50226 3.95186
1 3.6894 5.6269 6.31999
1 4.99489 5.74672 4.24192
1 6.32726 6.07706 4.64828
1 6.34326 1.00917 2.90708
1 3.92621 6.36802 1.13602
1 3.22109 0.815197 0.902999
1 1.22084 2.79902 0.125177
1 5.92826 1.89928 5.78687
1 4.01649 0.483789 4.92753
1 2.17082 2.6174 1.98975
1 1.6538 3.37071 5.28817
1 2.3299 3.16829 6.30881
1 2.73331 4.42714 1.50236
1 4.07611 0.557905 2.92244
1 2.56276 3.81752 4.25021
1 4.69984 1.2253 1.94001
