256
Atoms. Timestep: 20000
1 5.77831 2.63566 4.35036
1 2.60164 3.03868 4.02575
1 3.05676 0.560054 5.2805
1 6.25146 5.38753 3.9309
1 5.81653 2.71981 5.42139
1 4.997 3.3047 6.67373
1 0.411744 6.16914 2.70764
1 5.93544 6.78934 4.37676
1 5.32613 0.915332 4.52669
1 0.55245 1.0302 2.60055
1 5.44433 0.0914927 5.52781
1 4.60223 1.31755 1.79568
1 3.08653 1.60266 5.58159
1 6.45154 3.30011 3.91726
1 1.57397 2.32195 2.96376
1 1.51718 6.47987 4.51064
1 6.43102 5.40256 1.06644
1 2.66238 6.63645 4.38762
1 5.64929 6.79631 1.4827
1 3.584 3.40278 3.81981
1 3.56996 3.61952 2.78602
1 5.09818 1.81906 4.92948
1 0.713611 2.76225 3.52034
1 0.823669 0.522619 6.2101
1 0.266559 5.85399 5.94426
1 0.115267 3.44276 2.96908
1 6.69609 5.38316 5.05074
1 1.63808 2.71875 5.26798
1 0.995016 0.0466237 2.19513
1 5.0003 3.62504 3.73187
1 4.48024 3.05534 2.8553
1 1.35355 1.26464 6.78973
1 5.06091 6.7659 2.49657
1 1.70018 5.54726 0.633782
1 1.68568 3.32177 3.21767
1 3.80858 2.8071 6.72158
1 5.27712 5.77854 2.92081
1 6.57899 4.50186 1.50749
1 5.87361 1.19047 1.8378
1 0.135229 0.761657 1.67508
1 0.0678776 1.81138 1.39705
1 1.15258 4.13754 6.40326
1 4.34859 5.99288 6.55261
1 3.67588 6.50273 0.56848
1 3.02089 5.4402 1.64861
1 3.77478 1.16594 3.50506
1 3.51475 6.13289 5.0144
1 2.80801 6.07463 2.49178
1 0.278076 0.422312 0.393939
1 6.05705 0.793695 0.799439
1 6.35989 1.18304 4.08136
1 1.52794 4.02875 2.22601
1 3.69033 5.25335 5.86931
1 1.44258 1.44834 3.62987
1 4.77426 5.85242 1.83195
1 5.38731 1.87746 5.91813
1 6.1257 3.37013 6.73711
1 1.56144 2.04908 0.975521
1 4.35265 4.33333 3.30871
1 4.91829 0.758503 0.920162
1 0.238822 3.69391 4.91278
1 4.49966 0.221998 6.66668
1 6.59035 5.17687 2.87427
1 1.29341 6.79974 1.15573
1 2.42561 6.35643 0.645382
1 3.55602 6.48323 1.66608
1 2.34974 6.2884 3.36453
1 2.40475 1.2975 2.7895
1 6.46084 3.6309 5.82308
1 3.57246 1.32817 1.85754
1 5.06921 3.74824 4.81033
1 0.0315791 6.27908 4.07307
1 0.245644 2.40584 2.63042
1 5.5063 6.5598 6.60703
1 0.166024 0.406176 3.38831
1 4.34737 2.88108 1.0232
1 6.31271 1.06471 5.75062
1 5.78724 0.368988 3.46785
1 5.91568 2.28891 1.59169
1 1.5391 6.22313 6.09009
1 6.44909 3.82792 0.762971
1 2.12725 2.8913 2.30145
1 2.98553 5.03529 2.63219
1 5.97637 5.98135 2.04451
1 4.62544 2.79783 5.48733
1 6.51928 6.38186 5.19736
1 1.43279 5.50067 3.83353
1 6.28552 1.7915 0.465426
1 2.55498 0.252538 1.36214
1 6.3358 5.33881 0.102115
1 1.17306 4.83998 1.54117
1 2.83707 0.648846 0.368749
1 5.32803 5.10548 6.38415
1 0.441167 3.28225 0.110789
1 4.53212 1.72471 3.99312
1 5.51214 2.10867 2.52008
1 2.36969 4.97195 3.96967
1 0.862422 6.69529 5.41758
1 5.36004 0.971796 2.65638
1 6.1858 6.24942 3.25487
1 4.69788 4.67578 5.55686
1 3.00979 2.81263 3.16114
1 4.38764 0.273833 1.74283
1 4.62862 1.76755 2.92106
1 5.5188 1.57707 3.66085
1 0.941277 3.30099 5.71557
1 2.7661 4.09052 4.54874
1 1.48848 0.892379 1.99257
1 5.68782 4.98531 1.91559
1 4.32279 1.26181 0.187998
1 6.56447 0.089905 6.23814
1 2.32878 2.84997 0.938785
1 1.6485 3.26077 6.79939
1 1.10719 6.45698 3.61729
1 4.27672 5.39308 3.61039
1 4.78313 6.48487 0.928737
1 2.20689 4.71234 1.42702
1 4.08929 4.95515 2.38549
1 3.27628 4.42589 1.79555
1 4.2777 3.72309 5.97462
1 0.403057 4.21293 2.39991
1 1.81406 0.258064 5.3898
1 4.96522 3.90402 2.46689
1 2.00097 5.89802 1.73021
1 5.3776 5.95386 3.9824
1 2.64688 3.90825 3.42621
1 2.74962 3.09018 6.70216
1 3.29541 5.59703 3.55962
1 4.68256 2.73065 4.3478
1 1.99413 5.1252 3.00267
1 3.3736 2.32219 3.99513
1 0.41224 1.69447 3.62474
1 3.53031 0.750093 6.19037
1 2.14115 4.33336 6.7459
1 3.35693 1.90273 2.83705
1 4.72721 0.721718 3.64886
1 1.06136 3.10756 2.41948
1 1.25158 2.02491 2.0531
1 6.67879 6.56558 1.37182
1 4.56808 3.82057 0.688066
1 2.81404 5.23524 0.665283
1 3.30271 4.52655 3.6632
1 4.13528 2.22287 1.97459
1 6.04054 3.01641 2.4467
1 0.0880018 4.36101 3.47504
1 1.55904 4.39918 3.69416
1 2.55626 3.95125 0.810778
1 2.14181 0.620652 3.88957
1 2.96604 4.21114 6.19026
1 4.79543 4.92624 1.1074
1 6.08463 4.24349 2.59303
1 0.682619 6.3205 6.72606
1 5.97993 5.81339 5.98043
1 2.28698 1.82855 0.0319278
1 3.95876 5.67597 1.23513
1 4.19824 4.66264 6.53537
1 3.65293 6.60478 3.18212
1 5.39658 3.19336 0.811499
1 0.605785 5.93213 0.849298
1 0.468576 5.42679 3.62998
1 2.57873 1.96777 1.98695
1 6.31389 1.28748 2.90463
1 5.40068 4.22999 0.247642
1 5.82842 4.1932 3.74093
1 1.93612 1.17174 4.85757
1 0.877304 1.67889 4.60138
1 4.10996 1.69291 6.0556
1 3.35993 5.31356 4.4983
1 4.00602 1.73009 0.920539
1 1.42327 5.9034 2.58915
1 1.72614 3.52943 1.34752
1 5.35082 1.07979 6.77143
1 2.52286 5.47368 6.2961
1 6.2959 4.47647 4.6795
1 3.28535 6.50242 6.35119
1 5.71911 3.85807 1.61231
1 0.440819 4.52386 5.72442
1 0.780934 3.7639 4.05206
1 2.55423 6.3811 5.58278
1 0.338765 2.41316 5.57768
1 0.127408 0.835941 4.84537
1 5.41756 3.74236 5.8318
1 3.92141 6.71706 4.20933
1 4.20304 4.26228 4.36171
1 5.43786 5.88116 5.10246
1 4.9569 0.0184739 4.57207
1 1.76491 0.127262 0.135383
1 6.14589 1.7611 5.01007
1 2.44942 4.16769 2.46067
1 1.51708 2.33118 4.23694
1 4.02232 3.31315 4.87612
1 0.345321 5.3415 1.96505
1 1.82265 1.64321 5.79229
1 4.63584 6.48987 3.42523
1 1.48185 4.48064 5.09738
1 1.422 5.1749 6.06084
1 0.610615 1.49176 5.64727
1 6.78018 4.27613 6.69912
1 2.51886 2.08428 4.66685
1 1.97771 0.199988 2.59859
1 5.51657 2.79813 3.32053
1 0.685519 2.64003 1.35429
1 6.31481 0.137997 2.42723
1 6.3342 2.18981 3.39084
1 5.21598 4.89513 4.60512
1 2.34696 1.92293 3.60977
1 2.87549 0.455363 3.26505
1 1.24934 4.32268 0.58588
1 5.10351 3.001 1.78277
1 4.82079 2.34147 6.76785
1 4.059 3.64748 1.81515
1 0.396341 2.27728 0.276823
1 5.10831 1.85372 0.985722
1 3.58841 2.56754 5.77104
1 0.0472195 3.28583 1.90491
1 3.43698 3.3573 0.829146
1 0.349746 2.61959 4.54241
1 2.82154 1.35464 1.11056
1 1.06141 5.00184 2.54325
1 6.29749 2.25828 6.29278
1 2.87607 3.3201 5.2591
1 3.67275 4.51649 5.20106
1 3.88923 1.94377 4.92871
1 5.27409 4.71044 2.96948
1 2.37448 2.53847 5.92658
1 2.26709 5.70792 4.73683
1 2.06082 3.66896 5.83137
1 3.51254 4.33314 0.529549
1 0.93404 5.59721 5.02899
1 3.31044 1.56388 0.223053
1 3.26953 2.278 1.17269
1 4.19295 0.216858 5.60366
1 6.34236 6.42729 0.466986
1 3.69912 0.751895 0.937074
1 3.02905 0.508878 2.21592
1 4.83035 0.997913 5.64231
1 0.642799 3.69009 1.18335
1 4.47486 5.62483 4.72388
1 3.10417 1.19606 4.37023
1 5.48945 5.73949 0.648746
1 6.49417 2.80791 0.780088
1 3.02738 3.37203 1.8053
1 0.524479 5.04086 0.302547
1 0.9155 0.593466 4.15929
1 1.79999 3.61605 4.47564
1 4.13609 0.896376 4.62889
1 2.56425 4.8097 5.43257
1 2.44186 0.817851 6.20793
1 6.16159 4.6719 5.8463
1 0.619664 4.69729 4.49864
1 1.86436 1.05663 0.993207
1 0.0852183 1.32473 6.56152
1 1.17711 2.27765 6.32615
1 4.25007 0.677167 2.69975
1 0.750623 1.34652 0.736913
1 4.06779 5.93228 2.52232
