256
Atoms. Timestep: 200000
1 1.82588 3.03176 5.45044
1 2.91675 5.301 3.94538
1 2.53609 5.9682 2.7582
1 2.62455 3.53444 6.22285
1 2.61347 1.42164 4.25133
1 3.48373 4.11516 5.90264
1 4.24393 -0.0142386 4.76583
1 1.58688 3.91496 6.3831
1 3.0593 4.0233 2.4489
1 1.72765 5.97425 1.86694
1 5.92695 3.06061 0.179804
1 0.26762 2.80678 3.65616
1 4.05889 0.716931 6.77598
1 6.69574 0.512272 2.94333
1 1.13431 4.77555 2.92188
1 4.12309 3.1538 1.99889
1 2.70665 6.1835 1.53968
1 1.26113 2.08127 3.57351
1 2.2246 1.18454 0.982916
1 0.910146 0.327585 5.28091
1 1.74963 2.0495 5.80168
1 3.31125 2.86002 2.75696
1 2.86955 6.46223 5.32283
1 5.11554 5.50302 6.41474
1 0.133516 6.52543 0.233447
1 3.44207 3.33536 3.95596
1 1.14213 0.331664 4.31757
1 1.33164 5.91994 2.82112
1 6.35804 2.06022 3.71191
1 2.36886 3.61453 4.41221
1 0.0409973 1.52216 0.600633
1 4.42407 1.60833 0.775924
1 5.95423 4.79657 6.4264
1 0.592455 2.46936 0.703424
1 1.04491 4.9478 6.23535
1 5.55177 2.77286 5.12386
1 3.91169 2.51636 0.417611
1 6.1241 0.506897 6.05889
1 1.2973 1.76351 0.917232
1 3.58607 0.832866 3.86389
1 1.01298 5.95472 3.82267
1 1.26809 4.53818 0.382518
1 3.69498 5.68966 0.923144
1 0.817755 6.3542 6.02503
1 5.63736 4.81877 0.724008
1 0.341099 5.20428 1.08515
1 0.988554 2.74535 6.42826
1 6.22556 1.45003 4.71593
1 5.25854 4.69945 4.6671
1 1.49911 0.718178 1.77517
1 5.88193 3.80275 4.30122
1 4.5427 4.99179 2.6091
1 5.84342 0.327574 4.94227
1 1.95135 2.60498 6.62603
1 4.51473 4.69608 1.27425
1 6.12908 0.664227 0.298929
1 6.35378 2.81863 4.51857
1 4.78641 6.48276 5.60221
1 0.442225 1.97461 4.38792
1 4.79883 2.32496 2.19627
1 5.16744 3.16486 1.12357
1 4.19122 5.69167 1.86718
1 4.16961 1.54914 2.8213
1 4.55583 4.59266 5.58809
1 5.77971 3.55598 2.30554
1 5.56398 6.67011 1.32509
1 0.322988 5.37329 3.46399
1 6.71699 4.11275 6.15471
1 5.3256 5.92624 2.08621
1 2.45776 0.300174 4.64028
1 0.64461 6.28949 1.08702
1 6.69809 4.34441 1.91873
1 4.05752 0.8338 5.56467
1 6.7868 5.53299 6.05082
1 5.67372 1.18335 3.86612
1 6.31305 2.36253 0.786586
1 6.07308 6.09595 4.43993
1 5.23956 2.1016 1.23071
1 6.3437 4.95647 2.67767
1 5.13256 0.889396 2.91164
1 2.28243 1.30882 2.26567
1 2.01619 0.949719 5.31238
1 6.64159 4.40409 5.05371
1 4.93416 3.81231 3.83644
1 4.06523 4.32177 4.34416
1 6.74497 1.53121 2.79247
1 4.69026 4.20234 6.55655
1 0.730827 6.63019 1.98808
1 1.80258 6.64114 5.44082
1 2.71154 0.510142 3.3497
1 6.57324 0.47301 3.90824
1 2.51649 4.61243 6.25448
1 4.02526 3.56395 2.97631
1 2.2921 4.15451 0.313983
1 1.74821 4.98382 4.50057
1 6.75341 3.29045 1.09929
1 1.02233 5.72157 5.23156
1 4.22243 2.45521 3.4024
1 0.516481 2.31456 1.7217
1 4.98836 6.14458 4.13583
1 4.27897 3.5926 5.62036
1 5.5955 0.0114776 3.71053
1 0.71737 1.15215 3.72911
1 2.97457 4.15774 1.26763
1 0.347365 0.891503 4.70612
1 0.385827 4.169 1.01432
1 5.08148 0.537689 0.502793
1 -0.00445075 2.29993 6.63145
1 2.32493 5.19558 1.15597
1 3.93861 3.6152 0.768241
1 0.168513 4.32972 3.22773
1 4.43759 1.76192 5.1209
1 6.73195 0.238481 1.24348
1 0.928449 1.71392 6.69756
1 0.827423 4.55693 5.03279
1 4.60766 0.276538 3.75448
1 6.33456 5.66101 0.212813
1 1.34075 3.65175 4.49023
1 6.08144 2.04457 5.70374
1 4.6796 3.27173 0.0685685
1 5.27066 2.83285 4.03499
1 3.83278 5.03481 6.25382
1 0.881386 3.4926 3.22167
1 1.8485 1.16512 3.46061
1 4.91604 0.94892 1.84166
1 1.90736 6.66628 3.40192
1 3.35994 1.50233 1.21271
1 3.39486 5.3404 2.85168
1 1.52634 0.772891 6.28372
1 1.5926 2.24025 1.91384
1 2.09628 3.49718 1.32891
1 0.0739303 3.19227 2.40974
1 2.04186 4.05365 5.28658
1 4.04063 5.65133 4.11635
1 0.93006 4.67259 4.03322
1 0.512215 0.502967 6.27026
1 3.78798 4.43848 3.41536
1 5.955 5.25684 5.36513
1 3.10077 3.26079 5.17248
1 5.05057 5.58537 1.06477
1 1.69279 3.266 2.61405
1 1.42501 1.40724 4.52092
1 5.03527 3.05235 3.02337
1 2.66543 3.15493 0.400732
1 6.7051 6.80332 5.43319
1 2.54428 6.26579 0.493485
1 0.970262 4.10019 2.24328
1 4.00981 6.20839 6.75946
1 0.0964204 3.70383 4.24965
1 4.23457 2.95758 4.53313
1 3.07743 0.786767 5.15358
1 6.00258 1.24396 1.1928
1 2.65375 6.36823 3.88821
1 5.06431 0.475478 6.23009
1 2.93152 4.42994 4.87701
1 6.34271 6.01938 3.18575
1 3.20825 0.0563055 6.1248
1 1.67263 4.02567 3.47011
1 2.758 2.27828 5.89855
1 0.724171 2.46499 2.8163
1 5.58928 5.5531 3.59715
1 4.7825 4.89992 3.77997
1 3.02958 1.73491 0.15221
1 3.18257 1.43321 3.05545
1 1.94873 1.63618 -0.0193722
1 2.02313 5.12824 2.49448
1 1.86894 6.14466 4.4982
1 2.62113 4.527 3.33206
1 1.96883 5.47341 3.53049
1 4.53305 6.14156 3.09595
1 5.73158 0.142494 2.469
1 5.31027 3.32172 6.01361
1 0.822963 0.767313 0.838874
1 5.77244 1.27786 2.23985
1 1.67517 3.03287 3.65417
1 3.76232 0.921895 2.03666
1 5.7645 4.22143 3.15375
1 0.416358 1.23172 1.73184
1 1.31056 0.471116 2.86801
1 2.60094 3.44388 3.25676
1 5.00813 2.28948 0.264782
1 3.13364 2.26436 3.77726
1 5.88352 3.83715 1.36086
1 3.49042 6.32413 2.34731
1 6.32752 3.9088 0.359499
1 6.41896 3.11815 5.75962
1 5.45211 6.39006 0.145259
1 1.76129 6.78465 1.15511
1 1.5673 6.49521 6.68038
1 0.154802 5.5162 4.7376
1 0.469576 6.50483 3.27717
1 3.87064 4.23809 1.89209
1 4.66768 5.54554 5.11743
1 5.38568 1.28685 5.53253
1 0.863711 1.34509 5.49805
1 0.450137 3.536 0.14446
1 5.92335 2.66429 1.7079
1 1.77801 5.80959 5.93355
1 3.19881 2.00485 2.11909
1 4.80279 1.39693 6.58167
1 2.94419 0.470758 0.30069
1 0.212522 2.20365 5.47584
1 3.41174 4.1562 0.0983779
1 4.72837 3.99242 2.42961
1 6.16284 5.46411 1.40879
1 0.291359 6.62043 4.44903
1 1.1948 3.20902 1.577
1 3.71879 5.05976 5.01116
1 6.07639 3.24367 3.39431
1 2.20777 6.8204 2.30342
1 2.86845 1.07953 6.18674
1 6.22503 2.3954 2.67411
1 2.75085 0.428639 1.62599
1 1.26466 1.58035 2.58137
1 0.665734 3.26692 5.48527
1 3.32439 2.94913 1.32821
1 0.163283 4.79166 0.190226
1 2.52744 2.66838 2.01157
1 5.92285 6.15874 5.83856
1 5.40977 4.91472 2.00487
1 2.9571 5.81224 6.35306
1 1.40872 4.88263 1.4722
1 3.17801 5.25474 1.78168
1 0.816344 5.63903 0.254271
1 2.15311 2.39896 0.882191
1 4.58173 6.74369 2.20896
1 0.529919 5.40199 2.25498
1 4.97865 3.59399 4.80655
1 3.05626 5.12211 0.397395
1 5.30439 1.89777 4.51911
1 1.1164 2.3813 5.05842
1 6.79777 1.36379 6.13686
1 3.39193 6.71701 0.97496
1 3.6562 6.50718 3.72096
1 3.8048 1.80808 6.01918
1 1.96772 5.3253 0.228997
1 2.46863 5.4404 5.09814
1 6.53578 6.29966 2.06078
1 1.37065 3.34639 0.483769
1 4.48621 1.5445 4.09532
1 5.68628 4.18035 5.55471
1 3.95369 5.89875 5.65884
1 6.38737 4.76706 4.02082
1 5.28898 2.01106 3.32103
1 4.19614 0.715043 1.10889
1 4.53959 6.48925 1.03846
1 4.5279 2.48025 5.81801
1 4.89325 0.813679 4.73097
1 3.55586 2.92678 6.25976
1 2.13804 2.27178 2.86818
1 3.5004 2.22606 4.85853
1 4.31264 5.13845 0.332082
1 1.99173 4.17143 2.06544
1 3.86669 0.484675 2.97736
1 2.33497 2.43307 4.6987
1 5.76522 1.69321 0.225177
