256
Atoms. Timestep: 210000
1 0.413909 2.93733 4.82669
1 0.65883 3.45135 3.79848
1 1.04582 0.197554 1.69635
1 0.987552 3.88128 5.41403
1 1.4091 6.3089 6.48435
1 6.30838 5.58293 0.79598
1 3.66704 0.453578 6.67839
1 5.80113 4.4733 5.70802
1 2.57795 3.75043 2.2559
1 1.81043 1.09364 2.70843
1 4.91132 3.95921 6.4598
1 1.20656 1.40308 3.59231
1 5.32557 1.17845 6.66707
1 2.85059 1.18862 3.15286
1 0.830654 2.23062 1.90602
1 2.18771 3.27266 4.13946
1 2.43188 4.86986 1.81988
1 0.0587541 6.79001 1.8713
1 3.11692 2.09824 2.80561
1 1.76489 6.33044 4.22429
1 3.09414 1.84306 6.72086
1 1.50988 2.12491 2.78485
1 1.58594 5.19674 1.13237
1 4.14977 5.79202 5.9043
1 6.07746 5.84247 6.45031
1 3.3348 4.62307 2.8393
1 6.32521 5.76257 1.85973
1 1.07837 4.98824 2.36959
1 5.92407 0.678521 3.03702
1 2.45197 2.91692 3.15632
1 0.0327703 2.24259 0.507612
1 2.04335 4.00977 1.25837
1 5.03809 5.12878 6.16168
1 0.239129 3.22524 1.20457
1 0.245932 2.95883 5.87191
1 0.149017 1.18274 3.36104
1 3.72989 1.36593 1.58158
1 6.60738 1.91745 6.17695
1 0.790286 3.0865 0.260158
1 3.78842 2.80848 1.96688
1 1.47323 4.67368 4.93961
1 1.39023 5.26098 5.99782
1 4.34439 4.75491 1.61665
1 1.02085 5.41765 0.19301
1 5.32265 4.6504 0.80148
1 6.72986 4.18388 5.77224
1 1.21339 2.17818 0.681311
1 2.06911 1.53133 5.55497
1 3.33067 0.573829 4.75094
1 2.13232 0.582773 3.79733
1 3.2795 2.98447 3.89949
1 5.77403 6.75673 5.97178
1 5.17209 0.406173 4.99414
1 1.31794 3.00722 6.01277
1 5.22783 5.73493 1.1665
1 6.70132 0.570929 6.47732
1 1.86563 2.58398 5.13714
1 5.90304 1.20363 5.76033
1 1.34962 4.94009 3.49283
1 4.24785 2.25381 1.1805
1 6.64964 4.80607 2.51872
1 0.438636 6.43315 0.0526473
1 5.15332 2.56012 1.55124
1 4.36167 5.13211 0.175801
1 4.81425 3.30061 2.28488
1 1.34669 6.42556 0.783455
1 4.04528 3.88701 4.33223
1 1.03788 5.44154 4.33868
1 6.45321 5.58459 4.076
1 0.417707 5.87195 2.37004
1 2.45263 6.54394 0.197824
1 0.272218 5.03865 3.56209
1 0.591594 1.19616 5.80991
1 0.498778 4.98478 1.32626
1 5.73395 1.50575 4.77598
1 4.30467 4.17282 0.487821
1 0.279169 5.15174 5.23317
1 4.71976 1.41509 1.60944
1 5.26081 5.46899 4.1969
1 5.4742 1.42247 3.71898
1 3.07674 1.92463 1.05025
1 2.01022 2.40225 6.72958
1 5.9418 4.02795 6.60089
1 6.38088 6.58474 2.72126
1 2.91128 4.95889 4.53262
1 6.55668 2.55811 1.7242
1 2.77855 2.72993 4.7735
1 0.269587 0.320335 0.830053
1 2.53592 0.322572 5.36461
1 1.46062 2.67845 3.81556
1 5.46679 5.36276 2.39018
1 2.47208 6.07376 5.91306
1 5.95096 3.00446 2.42769
1 0.616723 4.07452 0.715769
1 6.65026 4.21003 3.94033
1 0.53592 5.969 1.27511
1 1.31607 3.35807 4.60629
1 2.19426 2.0363 3.60497
1 1.76157 3.43819 0.269805
1 6.58269 0.146928 5.4498
1 4.50019 0.991257 4.41464
1 4.54261 6.15504 3.97698
1 1.52954 5.94726 1.98187
1 0.620481 4.46951 6.51554
1 6.1611 4.71281 4.63951
1 1.32716 3.22753 1.16837
1 4.85425 1.9876 0.376569
1 6.29661 3.65762 4.90777
1 2.13464 5.26961 6.68067
1 4.02625 2.72102 3.05828
1 4.02244 3.82557 3.22712
1 4.74674 1.98021 5.13219
1 6.36061 1.11907 0.666146
1 2.5025 0.810844 6.52642
1 4.93621 4.76386 5.13657
1 3.54867 1.89567 4.95306
1 0.903339 6.76051 5.27009
1 6.61734 4.74202 0.292488
1 6.05935 2.35792 5.36142
1 4.28962 1.87983 2.37088
1 5.97311 0.71439 4.2563
1 4.03608 6.51829 5.06584
1 6.46032 3.74579 3.05773
1 3.64195 3.58047 1.21251
1 2.644 2.72463 2.15161
1 1.40792 1.78523 4.59082
1 5.27766 6.66162 2.75477
1 3.80567 0.0700288 2.00582
1 3.15479 5.02494 6.25549
1 0.436115 3.20204 2.16998
1 1.58522 4.56128 0.401184
1 6.2459 2.82866 4.34374
1 3.70112 3.25065 5.17889
1 3.61814 0.624697 3.64298
1 1.98919 4.32677 4.15605
1 4.03281 5.72264 1.33898
1 4.87688 4.53706 3.54905
1 4.67999 3.21159 3.92583
1 3.02148 3.9059 4.44261
1 5.97533 4.84732 1.53816
1 1.49872 3.05754 2.39674
1 1.9218 6.33015 3.03448
1 5.14861 2.59338 3.06028
1 2.6662 4.06811 0.419008
1 0.278499 6.08619 4.82866
1 2.60736 1.53568 2.05856
1 6.40531 3.81458 0.721732
1 5.43096 0.861111 0.891972
1 5.28316 3.00136 5.03584
1 3.25515 4.20548 5.37583
1 4.10939 0.839616 5.35135
1 6.18945 6.73327 0.29868
1 3.63785 5.78675 4.06277
1 5.43073 2.21563 6.18863
1 2.43514 5.1 5.54979
1 1.53216 3.65967 3.24856
1 3.16799 1.26705 5.80913
1 2.8752 3.92786 3.40746
1 4.35824 1.62334 6.26403
1 1.56274 1.18527 1.65383
1 6.01835 6.56962 4.52143
1 2.91401 6.51591 3.88808
1 3.18264 0.871681 0.682014
1 4.13019 1.20497 0.514529
1 0.880261 2.00399 6.38425
1 2.04938 4.47983 2.82282
1 2.53291 5.58428 2.73883
1 3.76685 4.71706 3.78661
1 2.83662 5.14939 3.56293
1 2.4875 1.44349 4.52513
1 4.70012 0.945772 2.89935
1 4.55628 3.14274 0.140309
1 2.28972 1.51234 0.514439
1 6.60194 1.78253 2.50102
1 0.46553 2.16537 4.15973
1 5.95906 1.32254 1.85317
1 5.80041 5.88153 3.28269
1 1.39692 0.744174 0.757548
1 0.809361 1.28154 2.4477
1 0.965716 0.163506 3.33884
1 4.074 2.56333 4.36133
1 4.33564 4.66705 2.70578
1 4.67961 3.81288 1.42496
1 4.31012 6.76482 3.19288
1 3.68523 3.83665 6.44349
1 4.6219 3.88112 5.47693
1 5.16031 0.531269 1.84563
1 2.19298 6.04008 1.26318
1 4.47422 6.62792 0.296796
1 5.96812 4.80493 3.36641
1 0.634888 3.96817 2.80084
1 2.89042 6.31355 1.99442
1 6.17914 5.67452 5.41102
1 0.956612 0.413834 6.58292
1 0.841305 5.85836 3.31788
1 4.51467 2.81485 5.88673
1 5.35031 1.67713 2.65117
1 1.85426 4.28953 6.14166
1 3.85931 3.95606 2.13387
1 6.79676 1.72326 5.09261
1 1.53511 1.3154 6.6253
1 1.61341 0.629779 5.65281
1 5.18937 3.9629 4.39469
1 5.48484 4.22652 2.58655
1 4.82328 5.54735 3.20009
1 5.0898 6.12651 5.1733
1 2.14166 3.67184 5.3329
1 4.12901 4.59385 5.98503
1 6.41782 2.07958 3.52224
1 0.601567 1.28803 0.291899
1 4.58232 0.330277 1.06943
1 6.76117 4.04208 1.774
1 3.74717 0.882482 2.611
1 0.441747 1.22101 1.38642
1 0.705 4.23017 4.47606
1 3.26737 5.39695 2.08694
1 0.193342 5.4488 6.16946
1 0.4962 2.57993 3.06391
1 4.75661 6.69084 6.02437
1 5.6364 3.44656 3.60833
1 5.69503 3.58077 1.48243
1 1.13868 3.9968 1.81026
1 1.95494 0.348196 2.09601
1 2.27229 0.24488 1.14697
1 2.47765 2.79835 0.83408
1 3.83239 5.77193 2.98445
1 5.84238 6.77482 1.2722
1 5.31448 2.44095 4.12405
1 2.67738 3.22065 6.39536
1 0.210924 0.392014 4.59637
1 0.888089 2.15588 5.41087
1 1.61902 6.00385 5.28722
1 3.63293 6.04675 6.79212
1 2.58591 2.2855 5.91506
1 3.2128 4.69133 1.2052
1 5.14481 5.89572 0.0430132
1 3.33757 5.5989 5.32585
1 6.57509 6.71904 3.74691
1 6.23629 2.76094 6.60075
1 5.05212 0.39495 3.91959
1 3.4049 6.50425 5.87285
1 3.28204 6.67196 1.06644
1 4.27036 5.48939 4.82412
1 1.58445 0.76211 4.60153
1 2.9897 5.45513 0.531567
1 4.62571 6.2319 2.00499
1 5.60071 3.38732 5.94728
1 2.95714 0.651057 1.70306
1 3.59015 2.36673 5.94694
1 3.28781 1.94917 3.97625
1 4.24845 1.75466 3.52337
1 5.46682 2.87285 0.589936
1 2.06283 2.14533 1.48016
1 2.91137 0.188162 2.83572
1 3.55175 2.84673 0.467782
1 5.75123 1.86903 1.01145
