256
Atoms. Timestep: 220000
1 1.87381 3.12432 5.82565
1 6.7447 4.18637 3.83224
1 2.17522 0.550709 2.51356
1 6.34767 5.0004 3.31596
1 2.56103 2.09376 0.34105
1 4.66604 5.88539 2.309
1 3.35647 1.54042 1.23297
1 5.4519 6.47704 5.60488
1 2.99951 3.20805 2.34383
1 1.80048 0.682158 3.70902
1 6.7778 4.93307 1.94807
1 0.113523 1.73396 4.077
1 4.2613 4.56242 4.64586
1 3.25344 2.21409 2.91951
1 1.37277 0.440484 1.56523
1 3.38089 4.55548 5.6297
1 1.23407 3.65624 2.20815
1 6.73479 1.06508 5.27619
1 2.50133 6.74155 3.45414
1 1.68445 4.82727 6.1695
1 1.29778 2.32553 6.32364
1 1.73429 1.53743 3.08243
1 0.279096 4.30551 2.82238
1 4.54708 4.72187 1.97826
1 5.99339 1.51658 4.7327
1 2.7194 3.7528 4.02517
1 5.64415 6.38527 2.03268
1 6.27247 5.59442 1.37149
1 5.75002 0.530965 2.5813
1 5.59201 1.41086 1.49807
1 0.656767 2.85629 5.43542
1 4.4412 1.64959 0.882045
1 4.29946 6.43168 3.54265
1 5.5188 1.63805 2.63991
1 5.91238 5.60797 6.24616
1 0.409549 6.57864 2.76082
1 3.02281 5.25532 2.92096
1 5.91492 3.09959 5.61657
1 6.08964 4.38693 6.08383
1 5.309 1.62612 0.211864
1 1.36081 5.70473 5.75558
1 6.27936 6.51519 4.87087
1 6.42676 3.51989 3.04709
1 1.54276 3.42196 0.760029
1 5.16563 3.76021 1.65517
1 5.58743 4.62812 4.35486
1 6.5197 0.295159 0.310022
1 1.80972 1.27424 6.23441
1 3.46144 0.743779 5.57503
1 6.3968 5.48003 5.32312
1 4.29655 3.20319 1.87507
1 4.88952 5.83751 6.37137
1 3.45815 1.22962 4.54753
1 2.14226 4.29654 0.738849
1 6.47182 6.10037 0.291293
1 1.42239 6.73972 6.3798
1 0.888913 1.56008 0.0334003
1 3.62847 0.475698 3.32896
1 1.63947 4.56572 2.6129
1 4.34686 2.00205 6.41262
1 4.28774 3.99662 5.6666
1 5.19475 6.39311 4.4945
1 6.36747 3.49567 6.64215
1 4.66107 5.30655 1.1552
1 4.15549 0.661035 0.573543
1 2.16019 5.56182 2.05754
1 4.23047 2.85355 5.04992
1 0.0147388 6.14696 3.95101
1 5.31765 6.4022 3.12485
1 0.542896 0.11946 1.10926
1 1.41656 5.60862 0.0283937
1 1.41598 6.47027 2.35734
1 1.12498 0.564026 0.425488
1 1.14221 5.25548 1.93695
1 5.84679 1.6142 3.74449
1 3.07313 3.9288 0.452478
1 0.682551 0.349276 5.52299
1 5.17291 1.39013 5.98774
1 1.08075 4.95436 3.65423
1 6.45994 2.20824 3.06246
1 3.56492 2.25322 0.357717
1 0.420297 2.20039 1.65247
1 0.41781 2.96244 2.39699
1 1.888 5.58117 3.08613
1 3.21023 2.75874 4.76113
1 6.25164 2.88185 0.602904
1 2.80763 1.127 3.17655
1 2.39331 5.89352 1.03007
1 3.60997 5.54596 5.00266
1 6.2554 2.60784 2.21311
1 2.40484 4.12286 6.2364
1 1.23339 4.30245 0.356935
1 3.99819 1.40486 2.35368
1 0.649408 4.51505 4.58171
1 5.50041 2.54784 3.37456
1 4.4225 0.550859 4.20912
1 0.346127 5.70149 6.06149
1 0.649391 3.44471 4.50678
1 2.61638 3.06903 1.14938
1 0.488359 5.29828 0.782935
1 0.995713 1.59338 3.74868
1 4.2728 5.18674 5.7147
1 6.33943 5.63739 2.55603
1 0.89846 3.4417 6.50498
1 0.881845 3.50512 3.44483
1 0.650427 4.21001 1.48775
1 5.49362 2.53284 6.44521
1 5.78693 5.82755 3.86099
1 2.69476 4.92324 1.39074
1 6.15526 3.51273 1.64089
1 3.93125 2.5315 4.06199
1 4.29419 3.0548 6.11704
1 6.01984 2.12535 5.68501
1 3.35436 5.71504 6.04976
1 5.55572 6.61251 6.68945
1 6.43984 1.55052 1.94388
1 0.982673 1.61308 5.59172
1 6.43965 0.0939136 5.95551
1 0.167214 3.86553 5.79181
1 3.47313 6.65018 0.674558
1 0.833701 5.69042 2.93535
1 2.54733 0.535512 4.50115
1 4.49959 3.25227 3.26404
1 2.98501 0.625808 0.248122
1 1.41183 2.74236 1.91512
1 2.18838 2.48549 5.12742
1 2.47768 0.867308 1.37872
1 5.11292 0.391316 1.55957
1 6.22248 4.78272 0.384141
1 0.415106 0.84266 1.93615
1 2.11733 3.68772 1.71674
1 5.04942 2.659 4.3614
1 2.82575 2.40475 5.96728
1 3.42243 5.49886 3.83623
1 1.15417 2.22908 4.83208
1 6.24814 0.559556 1.49861
1 3.60462 4.46352 3.59333
1 4.87053 1.53573 3.83745
1 1.32215 3.94852 5.36919
1 6.05024 4.44358 2.38996
1 0.431773 2.19918 0.710827
1 2.59395 6.34927 4.50519
1 6.79496 1.21114 0.918936
1 4.22228 3.9118 6.7414
1 5.74296 0.73824 5.31927
1 2.25748 2.40317 2.60009
1 2.33647 3.32097 0.0677392
1 6.3699 1.86849 0.260397
1 5.22771 4.88384 6.39288
1 2.61282 1.29996 5.39271
1 3.98457 1.06083 6.36968
1 6.12275 1.01729 6.35373
1 3.09107 4.71002 4.64322
1 4.40247 1.62646 4.90866
1 1.81175 6.47177 5.41416
1 0.776902 5.50295 4.85777
1 1.96313 1.43576 4.50383
1 0.262757 2.78341 3.72291
1 3.19849 3.49141 6.1348
1 2.02255 0.0846515 0.473039
1 6.28012 0.0588571 3.44358
1 4.77874 0.682544 3.11533
1 5.14932 2.70635 1.46205
1 4.54459 6.27543 0.477785
1 1.01107 1.45455 1.22261
1 2.07688 3.42931 3.10305
1 2.49933 4.8881 3.79809
1 2.40156 2.54334 3.65622
1 2.40235 0.481897 6.198
1 3.56837 1.89566 5.42143
1 3.78126 1.49882 3.46056
1 5.44951 5.56916 0.402504
1 2.33056 2.14843 1.44375
1 0.420703 5.91895 1.56564
1 6.5226 3.57064 4.93862
1 0.236662 2.62536 6.57464
1 1.13136 6.52147 3.468
1 2.80072 1.53916 2.25279
1 1.72218 1.62164 2.04615
1 0.0296176 2.17335 5.04905
1 6.7765 3.85155 0.820079
1 2.40209 4.09144 5.19889
1 4.50087 4.12798 0.907602
1 3.51528 3.83827 4.93945
1 3.53101 3.92415 1.64182
1 5.51276 0.683766 4.26898
1 0.0956563 1.65813 6.11972
1 2.75058 4.1885 3.09651
1 4.67338 0.658519 5.43037
1 4.50078 5.50929 4.16741
1 5.33808 3.12461 2.49241
1 3.10264 6.20615 2.43617
1 0.466662 0.667392 6.53739
1 1.33296 6.21092 1.27085
1 1.68287 5.7681 4.3134
1 0.589574 3.17538 1.22692
1 4.31221 6.49222 1.44887
1 0.751037 4.84217 5.64332
1 3.84374 3.93504 2.6244
1 6.60945 1.07266 2.98196
1 1.89851 1.14428 0.573262
1 1.67872 0.705369 5.34076
1 5.62991 3.57582 4.05524
1 3.79559 3.23918 0.984493
1 5.27218 5.24964 2.83966
1 3.34056 6.71136 6.3775
1 1.82521 3.22857 4.45899
1 5.26822 0.708006 0.501033
1 1.07243 0.655476 2.74365
1 2.26695 6.17597 6.48277
1 4.43776 6.76565 6.25492
1 1.56066 4.15307 4.04203
1 3.15109 0.525354 2.33253
1 2.87669 6.73317 1.44841
1 1.29148 2.54995 3.05093
1 3.49686 4.93424 2.06899
1 0.555251 0.5154 3.64339
1 4.39494 3.55761 4.28929
1 4.37659 5.04155 0.0826519
1 4.75275 4.39118 3.68196
1 5.0743 4.18315 2.60906
1 1.85179 4.9107 4.90348
1 3.56395 5.72541 1.39113
1 4.19644 6.83948 2.46661
1 2.93841 1.43931 6.46646
1 2.53267 5.65066 5.29697
1 0.698224 6.34265 0.175457
1 4.39204 2.27709 2.8479
1 5.70044 4.70874 1.44655
1 0.693056 1.61293 2.54965
1 6.06552 2.71269 4.4343
1 0.892859 6.57409 4.57485
1 2.45836 5.26512 0.129593
1 1.41919 2.27175 0.61783
1 3.72632 0.529922 1.49662
1 4.3728 6.2277 5.32428
1 3.66471 4.70734 0.88929
1 6.67444 0.58005 4.35637
1 5.32711 4.14643 5.305
1 6.56314 5.1899 4.33573
1 3.62251 6.58831 4.40306
1 3.15453 6.51945 5.37815
1 3.35754 3.22068 3.315
1 0.90833 1.17953 4.60182
1 3.56326 5.66893 0.306294
1 4.18274 5.30557 3.1846
1 5.33809 3.61543 6.50774
1 5.57185 6.50811 0.979052
1 0.331509 4.56744 6.70366
1 3.58285 2.3747 1.78878
1 4.8381 1.91727 1.94937
1 1.54619 5.09497 1.00759
1 5.63299 3.8252 0.710943
1 5.21456 5.37744 5.23774
1 4.71206 3.00484 0.323056
1 5.11273 2.46566 5.50819
