256
Atoms. Timestep: 30000
1 5.51098 0.973521 4.80558
1 3.31441 3.02674 2.98224
1 3.31372 6.14093 6.42463
1 1.7722 5.09182 1.5806
1 5.08433 1.30575 3.38015
1 5.90594 4.04049 0.810111
1 0.115804 1.03716 2.78834
1 6.02861 0.748149 3.821
1 2.94383 0.679508 3.52705
1 6.6178 2.09065 3.45039
1 6.69054 6.77728 3.42546
1 5.26037 2.42409 1.42266
1 3.48957 2.09 5.90055
1 0.0954163 2.93078 4.52574
1 1.69039 2.64993 3.36034
1 1.94223 0.422722 3.70659
1 0.848506 4.93262 2.34159
1 1.05202 6.55326 3.27732
1 4.44112 6.11575 1.59084
1 5.34447 3.15328 2.49348
1 4.16576 5.38481 3.5382
1 0.0253068 0.277319 5.51996
1 0.103363 1.22735 4.55008
1 1.13378 1.18129 0.462852
1 6.38606 4.83024 0.354882
1 6.3605 2.57382 2.46793
1 6.34781 5.65781 3.80165
1 3.47836 1.13905 1.41525
1 5.8426 1.61121 2.8546
1 5.20284 2.35896 5.11953
1 4.15915 0.830888 3.85588
1 2.83756 5.5368 1.8913
1 4.92405 0.379557 2.94115
1 2.25518 4.5989 6.28558
1 2.95159 3.28264 1.98994
1 4.17878 1.61389 6.66012
1 5.02431 0.382581 4.0095
1 0.428167 2.76532 6.31937
1 6.15338 3.17843 1.35991
1 6.20354 2.23596 0.901527
1 0.343297 2.47305 1.47292
1 1.45756 2.97828 4.32583
1 3.91026 0.531169 6.48315
1 4.14055 4.68047 6.53856
1 3.77928 0.220201 0.895984
1 3.15297 4.65901 1.17575
1 5.72904 6.55918 4.65578
1 1.97619 3.96601 1.38324
1 0.355986 0.846779 6.50585
1 6.79412 1.22079 0.948482
1 6.11063 2.19776 5.81484
1 1.84846 4.80813 2.71469
1 4.17935 6.42187 0.0979119
1 0.689103 0.765611 3.80572
1 5.7259 5.92587 1.32845
1 5.80196 3.23816 4.77809
1 0.267867 2.24753 5.43797
1 1.51786 3.85332 5.82927
1 3.31569 4.66297 3.82696
1 5.9267 0.494323 0.802228
1 2.3323 2.29748 4.19591
1 4.6437 2.46835 0.614971
1 0.0786689 4.84904 4.62406
1 0.935618 5.76409 1.61648
1 5.35628 5.94143 5.56284
1 4.12577 0.282287 1.93595
1 3.00107 3.36826 4.0618
1 0.678066 1.20025 1.71895
1 5.93729 5.15859 5.09826
1 2.58986 2.61537 0.136812
1 4.37902 2.69802 6.07317
1 6.59967 1.29941 5.61402
1 6.45469 1.65698 1.91593
1 6.24607 6.37254 6.17057
1 5.98929 0.48197 2.69161
1 4.27618 2.92431 2.26469
1 6.31073 1.55908 6.70519
1 4.65541 1.63475 4.46682
1 5.14736 3.54823 1.51985
1 2.52661 0.243353 6.18192
1 0.0710173 4.27151 1.78829
1 0.438303 3.75371 2.78019
1 2.73061 4.36814 2.13559
1 6.12262 5.70572 2.84589
1 5.20736 2.10793 6.5004
1 5.99699 5.30918 6.19527
1 0.392171 5.24743 5.47367
1 2.08977 0.876499 0.0951498
1 2.77148 0.195493 0.550343
1 4.92465 5.76174 0.657564
1 1.31324 3.9911 2.27038
1 3.11504 0.0500384 1.68806
1 5.95322 4.09582 5.56116
1 1.95098 3.10559 5.14981
1 3.51012 1.68276 4.89074
1 4.81371 2.98769 4.29946
1 2.94221 6.00635 5.27413
1 1.02469 0.215399 0.315028
1 6.58603 0.636028 1.75615
1 1.02004 5.95688 0.522019
1 1.48438 5.76073 4.75097
1 4.03108 1.1059 2.79478
1 4.90912 0.151538 0.769424
1 4.2801 1.81808 1.62919
1 5.90792 4.04714 2.37374
1 1.65614 2.06605 4.93166
1 0.812576 4.91434 6.68978
1 0.484199 1.99488 2.49736
1 5.69966 4.78747 3.40362
1 4.161 4.42967 5.48249
1 0.459559 6.45665 6.30489
1 1.97256 2.84035 1.45937
1 1.02762 2.79386 0.477979
1 4.85558 2.12405 2.553
1 2.53797 1.10216 4.4615
1 4.90678 0.749988 6.45883
1 3.87039 4.00487 1.64162
1 2.40349 6.73954 4.59702
1 4.85385 5.96354 2.85365
1 3.87088 3.52865 5.87736
1 6.04561 4.17664 4.37224
1 1.27371 5.78503 5.99877
1 4.39997 4.32626 3.69301
1 1.66406 4.53202 0.362948
1 4.91247 6.12013 4.09042
1 3.62066 2.13933 2.58707
1 3.18754 4.86441 5.76075
1 1.26782 0.0314865 4.41562
1 4.59025 0.350139 4.96774
1 2.72516 3.93546 3.13144
1 4.31812 3.02365 3.36821
1 0.743304 2.1038 4.41758
1 1.96446 6.36291 5.49533
1 0.658243 3.84296 6.78989
1 3.0846 1.83278 3.62054
1 3.5997 1.99558 0.696968
1 2.09751 3.42656 2.45434
1 1.50132 1.78158 2.32278
1 5.92887 5.79033 0.339371
1 3.04609 3.75863 6.61589
1 3.36252 5.75641 1.03374
1 2.73951 5.74634 4.36274
1 5.37726 2.45498 3.40132
1 0.954133 5.14583 3.37023
1 0.674692 6.77112 2.25308
1 4.58236 6.66802 5.90366
1 1.83124 1.90767 0.0863706
1 1.89547 6.15667 3.6448
1 2.35796 4.53335 4.74294
1 6.59162 4.71049 2.91706
1 6.1909 2.07786 4.59325
1 6.787 5.85039 1.08359
1 4.99725 5.57394 6.49958
1 3.65294 2.82349 0.0446065
1 4.04914 5.70308 5.85244
1 2.65209 2.96497 5.92046
1 3.06705 2.23713 1.49415
1 6.29564 2.68902 6.66109
1 0.392993 0.00195355 1.18861
1 0.928341 1.1536 5.27534
1 1.2039 1.70703 3.31747
1 5.46229 0.065072 1.7732
1 6.75203 5.30554 2.00982
1 5.29718 3.55862 3.42235
1 1.75535 0.123426 1.96514
1 2.70085 1.67894 6.41704
1 4.79334 3.59442 6.50466
1 2.26517 5.32912 5.55095
1 3.71031 4.01485 2.76648
1 0.639372 6.02236 4.19128
1 0.915062 3.36278 1.50529
1 5.45011 1.33556 5.77565
1 2.6109 3.91198 5.57283
1 6.70953 4.43607 6.0934
1 6.61977 6.11473 5.14244
1 3.98249 3.80131 0.43405
1 6.10125 3.75154 6.6372
1 1.30109 3.99667 3.47027
1 5.6532 0.279978 5.5655
1 1.48093 1.3095 4.30733
1 1.84483 0.569599 5.16623
1 4.18684 2.51079 5.05474
1 2.4208 6.60801 2.88095
1 3.3877 4.22577 4.82163
1 4.71851 3.40318 5.31817
1 5.67643 6.5639 3.40118
1 3.03169 4.91803 0.184146
1 0.595202 2.94936 3.68152
1 2.84549 3.6425 1.04812
1 4.0646 3.61527 4.46797
1 5.6043 3.17925 6.02977
1 0.381965 5.87008 2.82584
1 1.83677 1.26781 5.88044
1 3.36939 0.290477 2.65528
1 1.38235 3.97087 4.51596
1 2.27847 5.67408 0.878923
1 1.78311 6.46294 6.65155
1 5.02613 4.53102 0.571773
1 0.827722 6.38355 5.28349
1 1.67669 5.97083 2.54353
1 4.35132 1.95639 3.38943
1 6.31133 3.19848 3.28537
1 6.06176 0.612578 6.41126
1 6.62261 6.72704 0.233478
1 4.99327 4.21559 4.76274
1 2.18213 1.39344 3.29114
1 1.84162 6.78394 0.880876
1 0.252552 3.8783 4.85029
1 3.87875 5.05968 1.95709
1 3.95512 6.52614 3.61837
1 5.31984 5.13229 2.33578
1 6.67812 3.34092 5.65171
1 5.4987 2.97456 0.374358
1 3.54086 0.351388 4.62772
1 0.163315 3.5225 0.817877
1 4.81846 4.07752 2.26942
1 2.90787 1.22376 2.41824
1 1.20007 0.851889 2.78259
1 3.15748 5.55929 3.11428
1 4.97961 1.07968 1.89467
1 0.925615 1.7212 6.16476
1 3.6556 5.16138 4.774
1 3.56506 2.48867 4.19935
1 4.1993 6.18686 4.90179
1 1.9641 3.50109 0.291885
1 0.797624 4.8328 1.02055
1 0.868436 3.15322 5.34942
1 2.20457 5.56122 6.63527
1 0.0861288 5.66467 6.79638
1 2.31535 1.00312 1.52648
1 1.04912 2.97356 2.52684
1 6.63583 0.112591 4.54197
1 5.29061 6.60304 6.66166
1 3.75124 3.08402 1.42276
1 1.44358 1.80843 1.16731
1 4.43219 1.62186 5.55247
1 0.212665 4.01398 3.82575
1 4.73399 5.30277 4.82227
1 3.74732 6.10953 2.43975
1 3.32878 1.115 0.311501
1 5.33012 1.47079 0.614468
1 2.46413 2.28766 2.61006
1 5.84191 4.81493 1.47199
1 1.24937 0.343969 5.93017
1 3.32761 3.09619 5.062
1 2.62678 2.18895 5.11551
1 1.31917 4.82139 5.13434
1 2.98055 1.06019 5.59614
1 5.15527 4.8646 5.757
1 2.22736 5.06266 3.78683
1 0.39484 2.0288 0.369548
1 2.46558 1.75996 0.903455
1 1.57897 2.455 5.96377
1 4.26294 1.13495 0.795708
1 6.43953 6.34066 2.09718
1 4.1544 4.93423 0.934059
