256
Atoms. Timestep: 40000
1 4.92764 0.401006 2.61024
1 3.68016 3.91234 4.32172
1 2.09951 5.61443 0.358951
1 1.12883 6.22873 0.588711
1 4.25657 6.52024 1.7613
1 5.26598 2.44494 1.39181
1 2.51002 2.1346 2.43196
1 0.278245 2.12828 2.72483
1 3.76329 4.74472 3.67945
1 2.62068 0.791686 3.90006
1 5.65225 5.13981 1.41506
1 4.6445 1.80084 1.97438
1 2.77453 0.116225 3.09359
1 5.15901 4.47797 5.06673
1 2.81983 2.09787 3.79047
1 1.3413 4.32937 2.58572
1 1.85204 4.98345 3.22014
1 3.53804 5.84745 4.14333
1 4.53898 5.51519 1.76503
1 4.5704 1.87246 3.16503
1 5.62096 5.88969 3.2736
1 1.93941 1.37792 5.93581
1 1.211 1.93886 3.86756
1 0.833923 1.2308 1.12691
1 4.29941 3.79672 0.0712456
1 0.48592 2.98472 2.30973
1 6.56057 3.06072 4.22588
1 5.58966 6.78609 6.27442
1 5.23738 2.7098 2.478
1 5.78137 0.910382 3.59877
1 2.56294 6.46067 4.12099
1 1.93501 0.364009 1.12866
1 3.75164 5.95366 3.06584
1 2.54422 4.41355 6.40069
1 2.20285 3.23059 6.19418
1 5.89457 2.68042 5.48647
1 1.13982 0.547914 5.33708
1 0.857499 2.32596 0.38272
1 2.6786 3.88018 2.5866
1 6.4029 2.33846 0.687702
1 6.56997 1.09787 0.875497
1 0.458341 2.36683 4.58026
1 2.58952 6.51574 6.79638
1 3.56094 4.5406 6.04429
1 3.39161 5.90529 2.0377
1 3.32937 2.96476 2.32324
1 6.63384 4.27528 4.04239
1 1.22925 3.98464 0.780582
1 6.57481 0.420396 0.0756634
1 6.74504 0.799825 3.10195
1 3.65955 2.31194 5.99951
1 0.856907 5.58742 6.43106
1 5.084 4.66679 6.2845
1 2.64902 4.85561 4.17377
1 5.94935 4.01896 1.2378
1 4.34283 5.12587 5.66133
1 4.84307 1.17659 6.64194
1 0.869934 4.83637 3.55007
1 4.40384 5.22186 4.58335
1 5.34978 6.49132 1.83859
1 2.65461 5.79259 5.00196
1 6.39675 3.38671 0.352915
1 6.56709 5.54389 3.96993
1 1.17385 0.404953 1.72298
1 5.76235 6.66576 5.13911
1 4.10151 0.34409 0.931351
1 1.81258 5.66453 4.44587
1 4.97849 0.71533 1.62634
1 5.36161 5.93557 4.48037
1 2.03196 3.85404 5.36496
1 5.42505 2.89159 0.331291
1 5.40022 1.60814 5.19387
1 1.60874 2.9172 3.90086
1 5.08639 0.59234 5.6576
1 6.2742 5.93508 2.07084
1 2.26988 5.05183 2.04862
1 5.37132 2.20464 6.2858
1 0.232269 4.23349 2.71435
1 4.92911 3.91977 3.1003
1 6.75989 6.25071 0.363453
1 1.86344 3.86286 3.4775
1 0.775955 3.71244 3.58223
1 1.1604 5.06804 0.605668
1 0.575969 5.52606 1.31388
1 4.5926 6.78818 6.64674
1 4.77041 4.03533 4.14816
1 6.06501 4.85953 4.68749
1 4.3039 0.956895 4.68844
1 3.56348 1.69834 1.30862
1 5.16311 5.17376 0.529205
1 2.00675 1.59412 3.10572
1 3.34816 0.341858 4.76396
1 1.50265 2.78867 5.29796
1 1.03618 3.9933 5.71764
1 5.01581 0.015742 3.65027
1 6.30601 1.86686 4.68167
1 0.890237 6.21048 5.5386
1 0.658379 0.340291 0.596127
1 0.211209 6.71637 2.34298
1 0.200428 0.874145 6.03606
1 2.75791 5.46873 3.30397
1 4.68803 0.97991 3.66339
1 6.04099 0.401887 1.62433
1 4.35096 3.19438 4.64558
1 5.9135 2.09375 3.55817
1 3.33493 1.17646 5.98448
1 0.0893217 4.22465 0.763569
1 0.865773 1.19469 2.89666
1 5.21198 3.47385 1.59179
1 4.99353 4.94315 3.6204
1 0.0826468 1.65555 6.78822
1 3.56223 2.00549 2.64436
1 2.45716 3.01184 1.71981
1 3.83196 1.05839 2.11103
1 2.55644 2.24527 5.75413
1 5.083 5.86036 6.48999
1 4.70171 1.33914 0.933599
1 3.54422 0.502055 3.69408
1 6.60928 6.26796 3.15024
1 2.49596 2.78293 3.21874
1 0.233461 3.32108 5.36615
1 2.15365 4.96946 5.45145
1 4.12936 3.88918 5.363
1 0.724102 5.09164 5.47877
1 6.0879 4.59188 3.21219
1 3.692 1.49829 3.63135
1 0.186642 0.119828 5.27471
1 2.41704 0.638196 5.0499
1 1.90186 0.13257 5.88951
1 1.09626 5.34912 2.30738
1 4.69912 2.50376 5.2777
1 3.34908 2.99688 4.10545
1 0.890452 1.50831 4.99042
1 2.08661 3.97949 1.76674
1 4.00488 0.298164 5.62743
1 3.01378 1.71471 0.0103316
1 1.95089 3.1435 0.690542
1 5.59091 1.5695 0.470288
1 5.63093 5.55211 5.64496
1 2.28095 4.5563 0.750194
1 1.57336 6.12245 1.4415
1 4.22027 6.71921 4.39449
1 5.87284 0.929879 6.3792
1 1.79863 0.589524 3.38903
1 0.77156 0.0382266 3.48247
1 5.30065 0.578664 4.6189
1 3.42247 2.78302 1.16631
1 1.8132 0.205623 4.38561
1 0.66703 5.3357 4.52642
1 1.62723 3.38008 2.63291
1 0.190533 4.36865 4.94473
1 5.96974 4.45353 0.125976
1 3.74015 6.24061 6.54535
1 3.38273 4.22121 0.269692
1 2.95678 5.4897 5.97037
1 1.08721 0.895218 4.17414
1 3.17689 4.48699 1.60592
1 1.41315 2.44386 2.31714
1 6.02491 0.145154 2.55724
1 5.41641 2.93646 4.53658
1 4.3002 3.00961 2.00774
1 4.733 6.17153 0.858364
1 6.76959 4.83501 1.83255
1 5.85025 3.83453 2.47057
1 2.34653 1.3699 1.52676
1 4.46494 2.17899 0.101799
1 5.15389 3.99987 0.60067
1 0.788785 0.0530793 6.33776
1 4.34834 4.95717 2.77485
1 0.027389 5.269 2.91764
1 2.60139 2.14762 0.841951
1 4.03713 2.2126 4.37689
1 2.9801 6.66257 5.78521
1 1.42942 4.69062 6.35984
1 6.69079 6.3267 6.06497
1 3.36446 2.83852 0.0839165
1 0.541437 3.78515 6.75694
1 2.79363 3.86996 4.71238
1 6.69917 1.78972 5.57102
1 0.172105 1.66851 3.77075
1 2.42326 2.79204 4.67527
1 6.39818 3.29209 3.17279
1 1.41496 1.41382 1.94842
1 1.16158 2.88195 6.33772
1 3.18284 3.55193 6.22312
1 6.45048 5.16488 0.7625
1 3.11677 5.35907 0.0880964
1 0.517552 2.67659 3.57036
1 4.46713 2.86576 0.822404
1 3.37806 2.96578 5.05003
1 5.84677 3.52735 6.25291
1 1.81135 6.3095 3.32613
1 1.85714 1.35852 0.686998
1 3.90382 0.152065 2.70823
1 6.15795 3.63617 5.08916
1 2.33241 0.740863 2.34365
1 1.57557 0.246409 0.122648
1 2.90537 5.44978 1.16009
1 0.89775 5.83998 3.22496
1 3.69956 3.83687 3.14413
1 3.01351 1.11262 2.91693
1 5.63874 1.29404 2.63176
1 4.73413 6.32691 5.60258
1 0.240476 6.46507 1.38362
1 5.04591 3.55979 5.48893
1 0.0760243 0.943889 1.98093
1 1.02288 1.15515 6.75417
1 0.138825 4.74953 6.67784
1 2.36094 6.26873 2.22915
1 4.91447 6.05075 2.63347
1 4.81194 4.39914 2.03215
1 6.23876 3.03748 1.34507
1 6.10304 2.20199 2.19292
1 0.574388 6.37219 4.38673
1 0.00939279 3.77921 1.7738
1 5.25149 2.85813 3.54376
1 1.24975 6.55649 2.51844
1 6.1288 0.810889 5.39373
1 3.24047 4.91771 2.59482
1 5.72598 1.4262 1.59052
1 0.395551 3.15641 0.944999
1 3.77664 5.83932 5.24111
1 2.01492 1.78884 4.86026
1 5.50902 5.18365 2.4094
1 0.257161 2.17895 1.6416
1 0.958478 4.57691 1.6074
1 6.48658 4.52925 5.83812
1 2.06504 5.83546 6.00677
1 6.14482 5.54618 6.704
1 1.31844 3.282 1.56269
1 0.910385 3.66446 4.59909
1 6.03318 6.76414 4.02031
1 5.52163 0.402484 0.577573
1 4.17668 2.98517 3.47059
1 1.94926 2.20571 6.70243
1 5.03322 1.8754 4.19839
1 6.77705 2.76599 6.47458
1 5.80095 3.81587 3.9672
1 2.42591 0.755673 6.59216
1 3.56823 6.06637 0.805979
1 5.97041 6.10431 1.04327
1 4.37087 2.99865 6.12893
1 4.22669 5.35903 6.73168
1 1.07042 1.97206 6.04688
1 3.12511 1.50707 4.59104
1 3.27556 4.81827 5.08259
1 6.61626 5.62233 5.15934
1 3.36819 0.416019 6.75927
1 4.51155 5.89508 3.69627
1 2.80194 3.67216 3.61642
1 1.48129 2.27944 1.15871
1 3.12521 0.733714 0.987107
1 1.73388 4.47617 4.31336
1 4.36684 1.45298 5.64013
1 0.00630567 0.740069 4.38812
1 4.11081 3.97814 1.31431
