256
Atoms. Timestep: 50000
1 0.834771 1.11288 4.37763
1 3.38351 4.46076 4.91631
1 2.04236 4.3247 6.43517
1 0.273595 0.887934 1.62144
1 4.57545 4.349 6.11707
1 3.6401 1.30516 0.296733
1 2.71432 2.09258 4.30278
1 6.24775 1.58215 5.3007
1 2.69148 6.03719 3.80718
1 1.23725 1.95509 2.68304
1 6.27544 5.03588 0.415552
1 0.77013 1.71204 1.35361
1 4.26726 0.068677 2.61196
1 6.3538 5.53963 4.9183
1 4.67023 4.41815 3.95977
1 6.60432 3.82481 0.35062
1 2.45546 4.06738 1.19906
1 4.82954 6.3247 3.40682
1 2.7084 5.93458 2.01429
1 5.73839 2.39348 5.86858
1 0.425371 0.453096 2.52314
1 1.405 0.334711 0.320056
1 6.7611 3.47201 3.4947
1 6.04556 0.87871 2.22873
1 5.09442 2.58787 0.0472872
1 0.876047 4.28335 3.18023
1 0.82144 3.15283 5.24477
1 4.67595 6.13549 0.728778
1 0.158828 5.47086 2.04086
1 5.4128 1.95372 3.79349
1 3.92415 0.86093 3.11456
1 0.0529429 5.82488 0.946065
1 4.14715 2.10596 6.15445
1 2.63533 5.70248 4.8003
1 2.56858 3.84477 5.67313
1 2.9579 0.941773 4.97011
1 2.35252 0.791677 2.82824
1 6.07161 3.78091 2.55133
1 2.52395 3.32492 2.66973
1 5.49361 2.98547 1.97006
1 5.1736 2.38183 1.06519
1 0.931261 1.19214 5.76949
1 1.56308 0.821119 1.19709
1 2.51274 5.01339 5.68237
1 4.7867 0.930743 2.16259
1 1.65216 2.83784 3.02345
1 5.7113 4.53182 6.04689
1 1.07138 5.50009 1.40046
1 6.60587 6.5087 5.37916
1 6.65898 0.980302 6.35652
1 3.29577 0.40489 6.65695
1 0.527048 5.7023 5.55479
1 3.36081 4.40417 6.138
1 3.05445 0.251433 2.42009
1 4.17721 3.14463 1.46837
1 3.31715 5.81403 6.24004
1 4.13356 0.248751 0.631
1 2.93107 5.32021 3.0488
1 5.90466 6.05152 3.18444
1 1.25621 0.0859275 2.91228
1 2.74767 5.54589 0.257586
1 4.4742 4.43084 0.697913
1 4.60009 5.50414 3.96477
1 0.308959 5.84433 6.57453
1 4.88446 1.16739 3.19379
1 5.62106 1.58446 1.52707
1 2.11291 6.03106 2.91115
1 4.6132 5.65408 2.52655
1 6.33541 0.0913647 2.88736
1 3.18048 2.56098 5.92419
1 5.24281 0.0772592 0.113655
1 5.61668 3.51644 5.46928
1 2.06928 0.979717 4.46925
1 2.12505 0.156245 3.58572
1 6.70024 6.63235 1.78606
1 0.895483 5.57701 3.36319
1 3.40739 0.0760478 4.66714
1 0.962025 6.10307 2.22679
1 5.30428 6.7914 2.4387
1 5.6977 6.74463 4.84017
1 3.26527 5.10261 3.961
1 1.04843 4.90423 4.17072
1 5.35542 6.34508 5.96164
1 1.78037 4.0608 2.48376
1 2.38571 6.64761 6.72529
1 5.60383 4.33347 4.57217
1 5.4552 5.06813 3.62214
1 1.14551 0.0829978 3.89952
1 5.69804 6.72603 1.28185
1 4.90724 3.33942 0.715184
1 4.23479 1.99314 3.53142
1 2.35018 6.72423 4.53328
1 2.08946 1.94686 5.13071
1 0.776352 2.26605 5.88861
1 3.87474 2.99624 3.04453
1 6.1427 0.0646991 6.34765
1 0.311744 0.675489 3.61621
1 6.06789 6.23469 0.378131
1 1.78667 1.98296 1.76276
1 6.49485 2.3009 1.1634
1 3.18599 0.130095 3.51772
1 6.06511 2.73683 2.89145
1 5.94533 5.89051 2.12618
1 5.6386 3.27194 3.95347
1 0.321991 2.53476 2.82063
1 3.33009 2.01687 3.17825
1 6.13269 3.85877 1.40477
1 2.74235 1.66888 0.95286
1 3.58915 3.88613 2.49502
1 3.77032 6.1455 4.07095
1 0.273106 0.0486867 0.637477
1 5.95186 4.28 3.40918
1 3.10544 3.30098 1.68507
1 5.00702 0.637939 1.03555
1 2.86301 3.33819 6.47095
1 4.24941 5.34815 5.93788
1 3.85142 0.798241 5.50026
1 5.71827 2.543 4.71502
1 1.38428 1.04149 3.52198
1 2.94421 4.18644 3.28011
1 0.492478 2.16884 0.352999
1 1.49978 6.0919 5.25547
1 4.54545 2.89299 5.62468
1 6.79076 4.72849 6.11965
1 0.895955 3.85493 4.2264
1 3.07911 2.98664 3.61518
1 0.478344 4.42118 5.12175
1 1.2933 0.335887 5.05144
1 0.398357 1.13406 0.473635
1 3.6674 6.08276 2.943
1 5.27066 1.06938 4.57694
1 3.76807 2.71281 4.34656
1 4.71575 0.0353451 4.30716
1 3.66145 6.42181 1.8714
1 3.4396 6.23102 0.383042
1 1.79969 3.42644 1.6536
1 1.3878 2.66334 0.883554
1 6.40566 1.9488 2.17671
1 3.90335 5.79637 5.0602
1 1.82974 2.89503 5.5224
1 0.601723 3.39823 0.997409
1 5.25498 5.52065 1.19279
1 4.30916 6.19318 6.49552
1 1.01693 2.59318 1.91532
1 6.78452 4.4279 2.30739
1 0.0912189 0.787704 5.06171
1 3.70062 1.8448 1.35715
1 0.696636 1.9186 3.61945
1 1.97526 4.77836 0.580767
1 1.83845 3.97903 3.55756
1 1.72647 3.84508 4.93507
1 4.18677 2.51825 0.663482
1 3.12423 4.46606 0.434025
1 3.80546 4.28508 1.46909
1 3.70678 3.6262 5.56002
1 1.73222 1.85472 4.04049
1 4.61977 3.00183 3.95002
1 6.70261 2.53843 4.02347
1 5.945 0.605054 3.8429
1 5.64748 1.08468 6.44426
1 4.56934 1.95286 1.96586
1 2.0202 5.91719 1.07413
1 1.0167 4.7583 2.23122
1 6.23803 5.07921 2.78665
1 2.60349 0.960946 1.68957
1 4.99074 1.4996 5.52533
1 4.51089 3.77262 4.8219
1 0.725253 5.97138 4.41956
1 4.66526 4.9358 1.72787
1 0.477072 4.73853 1.28265
1 3.19151 2.32663 0.221072
1 1.72498 1.67287 6.24733
1 1.83136 5.49165 6.431
1 2.41887 6.34465 5.69752
1 1.03554 4.80224 6.15413
1 2.10952 2.49484 0.0208019
1 6.0273 3.37582 6.44012
1 2.6287 3.65594 4.14267
1 4.5684 0.0259372 5.50242
1 0.805428 2.19662 4.63268
1 2.80471 3.02531 5.01884
1 1.33267 3.72645 5.95392
1 1.84108 6.71794 1.93786
1 6.52675 2.01161 6.35916
1 4.64581 1.61083 0.387582
1 3.67942 5.14946 2.11796
1 1.0686 4.06569 0.24078
1 0.100932 3.69709 5.81852
1 2.85109 1.61976 6.22348
1 5.79233 1.87558 0.38502
1 4.27439 1.10778 4.08765
1 3.35207 1.36305 2.33605
1 1.21009 6.13236 0.475327
1 5.48386 1.6854 2.63131
1 4.95835 5.72723 5.02457
1 3.08337 0.30445 0.951007
1 5.97887 3.07172 0.600575
1 2.11651 3.45163 0.403868
1 1.63857 5.0252 5.05954
1 2.72997 4.43913 2.18959
1 3.90573 0.735685 1.60266
1 0.402612 1.44381 2.65034
1 3.61528 6.63144 5.74232
1 6.24119 1.03539 0.901831
1 5.54352 4.18041 0.405639
1 1.46131 0.910615 2.20725
1 4.09597 3.15068 6.54176
1 5.19925 5.39312 0.135812
1 1.27342 4.23263 1.2635
1 4.03726 4.90664 3.25784
1 5.11094 4.71555 2.66806
1 4.94696 3.82907 1.64148
1 2.65786 2.24482 2.26976
1 1.90393 5.24469 1.98471
1 5.97546 4.87283 1.62502
1 6.48113 3.72282 4.69951
1 2.87934 5.18727 1.15618
1 0.480987 0.261427 6.1806
1 3.65984 3.70991 4.11285
1 6.42583 1.67622 3.38646
1 6.70084 2.97192 1.92204
1 0.884838 6.72681 1.384
1 2.24813 1.83585 3.18462
1 1.86433 5.00319 3.10659
1 1.66433 1.66421 0.537196
1 2.50067 2.73695 1.08736
1 0.031706 4.48467 4.02398
1 6.67482 6.6242 4.18867
1 6.14059 5.59235 6.0996
1 3.70913 2.4739 2.15953
1 0.877377 2.93791 3.72675
1 0.284674 6.35118 3.35582
1 4.77222 6.43412 1.6839
1 6.65024 1.35254 4.33747
1 0.402985 3.06731 6.56152
1 1.82614 2.87797 4.25013
1 0.438633 4.94781 0.256529
1 4.40364 4.82173 4.87716
1 1.42167 6.52053 6.26147
1 4.92411 2.62759 2.82684
1 3.80683 5.70818 1.13596
1 4.39931 0.55169 6.45994
1 3.91079 5.19735 0.0882204
1 2.46287 0.980246 0.220156
1 4.44156 2.07531 4.67225
1 2.34011 4.58878 4.43582
1 6.71105 5.44273 3.82053
1 3.55539 1.83581 5.27139
1 5.64306 5.94394 4.13092
1 4.91847 3.58604 3.11552
1 0.79756 3.52786 2.27309
1 2.27058 0.62625 5.97787
1 1.77045 5.82801 4.24207
1 2.89369 1.13227 3.72841
1 6.57038 2.7227 5.34631
1 3.44863 3.41407 0.609325
