256
Atoms. Timestep: 60000
1 0.574634 2.0279 3.48609
1 2.45674 5.00362 5.81747
1 3.16347 6.74193 1.10579
1 1.44563 0.946076 1.0623
1 4.697 4.18678 1.50472
1 4.76723 1.25596 6.17686
1 0.650206 1.89761 5.31003
1 5.60868 5.97727 0.259021
1 5.11464 5.64117 4.23767
1 2.29891 0.255696 1.83693
1 6.52927 5.13932 0.324311
1 0.337426 1.13103 0.639501
1 3.61876 3.19918 4.19104
1 3.52754 5.3472 6.27441
1 4.47915 5.82653 6.25504
1 0.213395 4.88456 1.58146
1 3.06472 2.61204 3.36408
1 3.80671 4.21075 3.89664
1 2.01332 6.25441 1.28784
1 5.959 1.94669 5.27808
1 1.2507 0.12161 2.00855
1 1.59907 6.43747 6.32037
1 1.84906 2.88895 3.94946
1 6.40878 0.215012 2.34989
1 4.29315 1.76723 5.26423
1 6.62473 2.81884 3.29802
1 6.04417 5.39906 3.80559
1 5.53527 5.0244 6.55208
1 5.30779 6.39124 1.61221
1 6.43638 1.98218 2.75771
1 3.69682 1.84819 1.20043
1 1.83318 3.91026 1.29611
1 5.90199 0.268197 5.48946
1 1.68707 5.53668 0.40246
1 1.21119 2.0353 4.35929
1 3.12225 1.51903 3.71046
1 4.11322 1.1417 4.27222
1 1.19814 3.07284 1.17924
1 1.53426 1.52528 2.96127
1 6.10138 3.51058 2.79716
1 6.03389 1.77156 0.605872
1 6.0132 3.17775 5.54208
1 3.21157 2.84995 2.39282
1 1.74346 6.50724 5.24297
1 6.16728 6.09555 1.19676
1 4.04965 2.91652 3.20129
1 5.65483 4.98461 1.11128
1 2.16988 4.82417 6.75919
1 6.60483 1.02611 5.42598
1 6.73692 6.71731 0.433718
1 3.36908 6.74691 6.77532
1 6.37757 4.26704 0.813779
1 2.59205 5.89544 6.17983
1 2.51271 0.873511 1.05635
1 4.10041 2.58675 0.461165
1 4.23251 4.54079 6.23154
1 2.26809 1.51368 5.91731
1 0.453604 4.59321 4.04772
1 0.300312 6.44967 4.09789
1 1.52629 5.92738 2.28161
1 1.23782 4.69943 0.70894
1 5.28757 4.23062 2.40308
1 3.3337 5.60956 5.26631
1 0.710706 6.33221 5.8497
1 5.32075 0.129727 6.50106
1 5.77635 2.66554 1.15303
1 3.70378 5.91449 0.676822
1 4.36484 1.25124 1.85454
1 0.919587 5.76947 1.36207
1 3.96593 3.59338 2.14925
1 4.53104 6.71263 0.42994
1 5.07177 2.14574 0.194373
1 6.03481 1.497 1.80837
1 3.18172 0.488673 4.23176
1 0.61906 5.94298 0.15399
1 1.35309 4.25292 3.58844
1 2.01541 0.779216 3.86639
1 1.32848 6.16182 3.49909
1 6.32311 0.594478 1.30135
1 4.71457 6.77394 5.5873
1 4.18472 0.0632932 4.60384
1 0.624393 4.47348 6.56835
1 5.73171 5.47296 5.0271
1 0.533027 3.63379 2.88733
1 4.86198 6.68858 3.76315
1 4.29017 4.69221 2.6376
1 6.44749 2.87707 2.02683
1 1.98176 0.0127801 2.84725
1 6.51012 5.93215 6.35532
1 5.41633 2.44538 3.06256
1 4.25204 2.44992 2.13068
1 2.32727 0.657451 4.97342
1 1.91487 3.28792 5.14911
1 2.1308 2.10368 5.02815
1 3.43491 1.87747 2.73949
1 6.71024 6.22921 5.20215
1 2.34892 2.13596 2.6373
1 6.68489 5.24524 5.48399
1 2.90612 0.12924 3.25312
1 0.0515561 3.44027 6.26477
1 4.54698 0.973491 2.84774
1 4.56531 3.75477 3.06505
1 6.42044 6.32152 3.11005
1 0.0109726 5.53482 4.46054
1 0.66663 6.77048 2.87085
1 3.21721 1.75218 4.93712
1 4.33927 4.98942 0.352247
1 0.593806 0.912013 1.89037
1 6.05279 4.54555 4.36223
1 4.69964 5.89658 0.96373
1 0.186409 6.57573 1.5199
1 2.42461 4.55615 3.15378
1 3.60646 4.56081 1.42383
1 6.20123 5.2867 2.1689
1 5.12349 3.10952 0.554402
1 3.16657 4.45853 0.0197584
1 5.63128 1.24684 3.11534
1 5.17958 1.98435 4.04708
1 2.32362 5.55185 3.28025
1 3.29705 4.46337 5.58901
1 1.20767 2.84698 0.063906
1 0.964862 5.92316 4.87442
1 2.95159 2.59362 5.70769
1 6.00346 6.46564 4.00753
1 6.54933 3.81151 3.72864
1 0.865631 3.14157 3.87422
1 6.35032 4.19344 5.53607
1 5.30452 3.77799 4.9652
1 1.35877 2.12181 6.03262
1 5.00347 5.1183 1.89828
1 5.06463 0.913775 3.92244
1 3.97861 5.23351 4.4673
1 4.78009 0.828774 0.870562
1 4.18084 5.64531 2.36772
1 0.701625 0.351225 6.45603
1 2.29461 2.97631 1.8034
1 2.52786 2.0221 1.24847
1 5.0524 2.97996 2.11172
1 1.24735 0.069347 4.38548
1 2.8838 6.56345 5.00002
1 1.03796 1.82194 0.322759
1 6.10093 4.64703 3.04927
1 2.49125 0.29346 6.10527
1 5.87063 1.57787 6.3292
1 0.540214 0.3238 5.14058
1 0.394839 1.3798 6.18739
1 4.05125 1.42662 0.275721
1 6.03382 3.18784 4.52964
1 2.7415 5.61094 0.442532
1 2.61188 4.97441 4.7141
1 6.69078 3.35167 1.08138
1 4.38982 3.22306 1.3195
1 3.37089 5.58581 1.51652
1 4.21941 5.24913 3.44105
1 1.76703 4.36913 5.26333
1 0.0961188 1.10415 2.97271
1 3.8629 2.17886 4.17266
1 3.80216 2.76627 5.14497
1 5.63788 0.175044 3.10987
1 4.85607 3.58076 5.86527
1 5.06228 1.68969 2.39267
1 1.21015 0.0373546 0.577796
1 1.36182 5.12428 2.95598
1 0.301106 4.74196 2.70656
1 5.23378 0.553939 2.17181
1 3.3501 0.834891 5.23804
1 4.05146 3.95476 0.279423
1 1.36798 5.13393 4.17646
1 5.19441 4.74539 3.48279
1 1.62697 4.09992 2.45082
1 3.1176 2.14469 0.195774
1 3.79672 0.813678 1.13294
1 0.305388 5.58537 3.40802
1 2.37362 0.121564 0.346679
1 0.0401503 2.37989 0.414165
1 2.19748 2.89328 0.613112
1 5.40361 4.56164 5.58922
1 1.38375 3.81005 6.04554
1 5.26586 6.58348 4.8038
1 0.224103 1.39938 4.4053
1 2.50827 1.08609 2.76517
1 3.12295 3.45462 5.07414
1 4.24229 6.65242 1.55854
1 3.94848 2.37833 6.25302
1 3.21273 3.32523 0.198027
1 3.43049 3.75339 2.98115
1 1.76562 3.68224 0.204124
1 5.05066 4.26575 0.490715
1 4.62063 2.93579 4.10983
1 6.55093 2.35411 6.14499
1 4.39599 6.64388 2.67058
1 2.77 6.19721 2.24561
1 1.49577 0.592234 5.79168
1 3.08527 1.27668 1.83806
1 3.67071 6.39606 5.82617
1 3.431 0.388223 2.13384
1 3.769 3.44463 6.01411
1 1.09415 1.8778 1.33349
1 2.77994 2.64039 4.37145
1 2.4638 3.46302 3.06303
1 5.85696 1.19371 4.55656
1 0.924543 2.59803 2.16472
1 4.90289 0.840699 4.98397
1 5.62693 0.203388 0.747538
1 1.48944 5.45762 5.83837
1 1.98567 1.4331 1.94569
1 2.28982 4.87738 1.06766
1 5.58899 3.64638 1.54333
1 0.665359 3.90554 1.72374
1 3.41189 5.93038 3.07315
1 3.47459 6.16489 4.11817
1 2.6809 4.1286 1.93103
1 3.01884 0.965757 0.130945
1 2.94257 3.90811 0.970181
1 5.94782 2.7037 0.0466432
1 5.54376 6.06362 5.84086
1 2.30734 5.17537 2.052
1 0.158455 2.41821 4.47334
1 1.14842 3.76596 4.73866
1 0.0790754 1.96333 1.35742
1 1.45809 3.11013 2.86111
1 1.2999 4.84931 1.77044
1 3.55969 0.862831 2.96951
1 3.28669 4.9338 2.52234
1 2.01614 2.86636 6.25101
1 2.09676 1.84319 0.135966
1 4.36491 5.88762 5.16901
1 1.33198 1.04767 4.80019
1 4.37858 4.8231 5.26245
1 4.75647 2.17108 1.25048
1 0.274253 2.82117 5.39388
1 4.92523 4.53047 4.45437
1 6.31019 4.20014 2.11053
1 6.36426 0.533345 3.71873
1 5.0983 2.72597 4.94794
1 0.0182463 3.82915 4.73962
1 0.627213 3.6054 0.446722
1 3.22069 5.10869 3.71231
1 5.36219 2.50185 6.08959
1 5.4058 3.73108 3.74055
1 5.23153 5.90512 2.90987
1 4.01058 0.544383 6.29778
1 1.63985 0.917362 0.0861762
1 3.4102 1.53861 5.96727
1 4.16229 3.73164 4.92523
1 0.566055 4.57286 5.08831
1 0.341634 5.77669 2.29568
1 2.1687 1.90576 3.78571
1 6.33539 1.73047 3.75708
1 0.99381 0.758251 3.57918
1 2.34209 3.79093 4.09413
1 2.44264 3.70218 5.83783
1 2.22058 6.02645 4.27418
1 4.48268 1.93552 3.18064
1 5.81718 3.76494 6.57459
1 3.29819 2.85948 1.14354
