256
Atoms. Timestep: 70000
1 0.932127 1.51819 2.1361
1 1.76246 4.63817 5.3472
1 1.29956 6.55552 2.00771
1 1.10716 0.686679 1.31385
1 5.42875 1.2639 1.49664
1 6.61401 2.82945 6.22938
1 6.12525 1.3374 5.54604
1 5.24201 0.470971 6.12772
1 3.94251 6.41038 3.55432
1 1.25586 5.25395 1.93302
1 0.158625 4.25254 1.2645
1 6.6567 0.349888 5.95702
1 3.42034 2.62845 5.74114
1 2.32671 4.02503 6.60936
1 6.26996 4.87909 0.365589
1 5.69609 6.23546 1.68673
1 3.04537 6.70266 5.91147
1 3.36089 6.56002 2.55339
1 1.57688 3.4013 2.16755
1 0.655478 1.44374 4.99188
1 1.03456 5.05372 0.737235
1 0.35915 6.29477 5.61057
1 6.55302 1.54014 4.51898
1 1.73348 0.75959 2.09768
1 5.60017 1.69281 0.504494
1 5.78602 3.1005 0.279622
1 6.03039 0.671932 4.15223
1 6.10076 5.84161 6.38446
1 2.43338 0.625569 1.13484
1 0.773678 1.44762 0.579563
1 4.48145 1.3099 0.894481
1 2.34693 1.58214 3.0722
1 0.915121 2.36435 6.36586
1 0.735782 5.43737 6.13953
1 6.48819 4.99401 6.05602
1 4.45049 2.23323 3.90344
1 4.03313 0.510473 2.85978
1 0.520335 2.84723 5.50321
1 1.44261 2.69452 5.01959
1 5.05202 2.80778 2.26173
1 5.44117 2.42428 1.34206
1 4.12259 2.75101 4.72899
1 1.75631 2.38318 3.4772
1 0.956214 6.49734 6.46069
1 5.17599 0.658819 2.39269
1 2.69152 4.84812 3.25665
1 6.26824 5.47128 2.34745
1 2.72462 6.3608 0.812894
1 2.77798 2.03861 6.42488
1 6.4938 1.46571 1.03426
1 6.38786 0.965418 0.135595
1 5.88342 3.38204 4.69552
1 4.59378 0.0640919 5.06524
1 3.44931 0.421879 0.648559
1 3.98393 2.72119 1.98828
1 5.12326 6.19117 6.27649
1 2.98246 3.08432 0.23872
1 3.26114 1.14012 6.72213
1 0.241004 1.70149 2.98142
1 2.41902 5.13819 2.18743
1 5.00141 4.07718 0.104585
1 5.80163 5.26467 1.24955
1 2.83925 4.43617 5.13065
1 6.53234 2.1311 0.151549
1 6.36235 0.52954 1.82239
1 2.86522 2.69736 1.58906
1 5.34936 6.25162 0.55782
1 6.01963 1.58814 3.47209
1 6.71248 6.34796 1.76767
1 1.2422 4.45828 6.3866
1 2.73201 1.66529 0.619175
1 5.31682 3.41819 6.18574
1 5.71087 2.14821 6.24435
1 3.70398 1.4976 3.65335
1 5.51259 4.97217 6.32922
1 6.71154 2.5484 2.49151
1 2.47989 1.64624 1.78818
1 2.80879 6.36078 3.82764
1 6.44451 2.64241 1.05793
1 5.01611 2.47892 4.96449
1 4.90737 5.42912 3.81139
1 6.02894 4.05431 6.59507
1 5.79758 6.63552 3.38704
1 0.947453 2.51814 2.44201
1 6.0821 5.67471 3.45905
1 3.6542 3.53371 3.6501
1 6.59104 0.652021 3.05898
1 3.10254 0.655128 3.54058
1 5.73644 4.06461 0.845973
1 4.87771 3.46814 4.91273
1 3.43413 1.25381 1.54111
1 4.22827 1.37242 4.97607
1 0.857008 2.12474 4.16906
1 6.79856 2.84041 4.49218
1 1.6687 2.49159 1.47833
1 0.246319 5.8022 4.46076
1 1.63064 1.41354 4.36154
1 5.78835 4.82016 4.14203
1 2.00076 0.409627 4.11701
1 5.62212 4.12589 5.58633
1 2.64554 6.47755 4.87014
1 4.88582 4.71734 4.80232
1 0.90459 0.416173 4.49437
1 0.160373 6.71658 3.73682
1 3.15557 0.68465 4.73958
1 2.3236 2.70027 5.67409
1 1.78395 4.32954 0.704934
1 0.549842 0.465583 2.20047
1 1.15284 4.20476 1.65982
1 5.03247 0.142952 1.46578
1 0.226033 4.35513 6.79743
1 3.35563 1.80455 4.65511
1 3.50805 5.17038 2.35003
1 6.38162 6.24727 0.672688
1 2.51313 5.07388 0.462838
1 2.47816 5.06954 6.13586
1 4.64898 3.2241 1.26794
1 5.20752 0.870617 3.53824
1 0.856314 4.16478 3.46166
1 3.24167 4.32217 0.494229
1 1.74606 3.54 5.9466
1 3.02808 5.47657 4.64049
1 4.58207 1.28907 6.65144
1 0.995398 0.340386 3.2891
1 6.39216 2.67351 3.45143
1 0.0452836 5.04466 3.71799
1 3.89752 3.71029 5.25876
1 5.65199 3.70339 3.70214
1 -0.00812615 0.574809 4.87648
1 4.73615 4.2931 1.28989
1 4.28474 5.76167 2.81222
1 3.41458 4.40007 4.13803
1 5.54199 0.656489 5.10502
1 3.92159 5.34684 4.1024
1 5.89504 6.45341 5.58831
1 1.64064 1.80049 0.000103626
1 2.57605 2.94738 2.73099
1 3.94227 2.46934 3.07171
1 1.11407 0.482181 5.65537
1 3.22355 5.9438 6.69309
1 6.27094 4.33301 2.08807
1 2.02733 5.59329 3.7643
1 2.16138 0.980234 6.18907
1 0.726921 3.46524 4.70686
1 1.82355 1.8062 5.70222
1 0.374254 0.479463 0.566045
1 3.94247 3.59175 0.64134
1 5.55821 1.63155 2.44834
1 1.70793 6.49535 0.630068
1 1.30185 6.29753 3.95871
1 0.403772 2.18618 1.62654
1 4.38074 6.02326 0.391049
1 3.82057 4.64569 3.18517
1 3.33882 5.67713 3.2813
1 3.51372 5.72659 5.57538
1 2.04434 0.318916 3.12407
1 4.64654 3.2657 3.28156
1 4.62405 1.44588 2.88547
1 4.83137 6.73865 3.10355
1 4.38061 5.29253 6.12336
1 4.42803 6.55198 2.16085
1 0.896585 1.10113 6.37827
1 1.91805 4.43026 4.13543
1 1.92624 4.07723 3.01402
1 2.9437 2.37524 3.74433
1 2.02104 6.58975 6.08807
1 3.39813 3.7971 1.46766
1 2.02795 5.40851 4.75762
1 5.5886 3.70458 2.60971
1 1.87934 2.19094 2.40776
1 3.7168 4.85081 1.32791
1 4.45717 0.152407 0.224968
1 0.352005 4.91715 2.29952
1 0.27493 3.27203 1.72685
1 6.01816 3.3921 1.68255
1 2.21442 3.3984 0.998359
1 6.55685 3.63054 3.03945
1 0.941185 3.50769 1.01411
1 0.760606 6.17413 1.06139
1 0.361897 1.01332 3.78228
1 2.8557 0.831934 2.3523
1 4.42814 3.71866 2.39481
1 4.65614 1.94077 1.76654
1 4.67148 2.50416 6.0278
1 4.22683 4.81583 0.281291
1 5.83172 2.41409 4.23556
1 0.716918 3.61066 6.3538
1 3.51038 5.8076 1.56364
1 5.39135 2.5429 3.18697
1 6.07519 2.38525 5.2481
1 4.96373 4.72636 2.87542
1 2.3761 6.73871 1.90619
1 1.65675 5.59275 6.5376
1 5.36315 0.676958 0.640131
1 5.90863 0.0281456 -0.00284319
1 4.61772 5.75199 1.45641
1 5.23314 5.24234 0.439866
1 2.11747 0.669899 5.20646
1 1.52826 3.32696 4.02292
1 2.99645 1.36754 5.63262
1 1.33164 6.39773 5.19487
1 6.58209 1.50237 2.09863
1 5.87021 6.0767 4.38378
1 1.92252 5.93201 2.64393
1 0.0149361 5.33526 1.27905
1 1.78313 1.4157 0.998852
1 2.55587 3.44906 3.76329
1 4.75908 2.82186 0.18422
1 0.761587 4.30273 5.36654
1 3.24617 1.88854 2.66411
1 2.60485 1.36892 4.03617
1 2.29012 4.16707 1.72575
1 2.50124 0.229151 0.0992217
1 1.82115 2.93297 6.76397
1 6.65265 3.75244 5.46503
1 3.44731 4.85269 6.41474
1 2.10911 3.50773 4.90069
1 4.21345 0.530055 4.1351
1 5.79387 5.39401 5.13647
1 4.34759 0.892346 1.84308
1 0.682063 3.01603 3.43715
1 0.817374 2.48991 0.669043
1 3.05684 3.63416 5.88901
1 3.5673 -0.0355951 1.61691
1 4.21099 3.56894 6.36442
1 1.52297 0.726437 0.268105
1 4.91921 5.90783 4.92202
1 1.25161 1.45082 3.27734
1 3.80729 4.89521 5.0485
1 3.84511 2.2244 0.949892
1 6.73018 3.75783 4.05759
1 4.20587 6.53257 6.00051
1 0.586627 3.77116 2.45992
1 6.67168 6.3019 2.85734
1 5.03111 1.49828 5.57204
1 1.54342 5.01542 2.91599
1 0.139567 3.27907 0.36196
1 3.58678 6.40678 4.51465
1 0.161145 1.85188 5.93219
1 0.816351 6.01747 2.76215
1 5.368 5.79752 2.65775
1 5.102 6.79055 4.11182
1 1.89699 5.77993 1.35561
1 3.90356 2.1399 6.6969
1 4.70254 4.37078 3.76365
1 4.65199 4.40436 5.81885
1 1.02828 5.06682 4.02954
1 2.30712 2.25686 4.60394
1 5.22222 1.47022 4.46058
1 0.250199 5.61424 0.220186
1 6.59056 4.74502 4.89781
1 3.79753 0.640387 5.67243
1 0.98583 5.33895 5.12791
1 3.13056 3.09362 4.67727
1 6.03211 4.63816 3.14086
1 3.26801 4.05558 2.529
