256
Atoms. Timestep: 80000
1 1.73462 4.74363 3.1988
1 1.96323 4.55817 5.04855
1 6.27907 0.00218456 3.73289
1 5.05921 0.578744 4.24913
1 0.647646 2.5797 1.38331
1 0.301218 4.83068 0.382481
1 6.62432 1.68697 6.13769
1 5.33918 0.567096 0.296462
1 2.979 0.268462 2.36341
1 0.492667 6.59006 3.4788
1 5.70169 0.0395293 1.22166
1 5.97353 6.1604 0.421901
1 3.02402 2.35881 5.1046
1 2.11477 3.90634 5.98008
1 5.85442 3.51514 0.852434
1 6.6909 0.778104 2.55106
1 0.975968 2.41879 5.34841
1 0.917065 0.725342 3.89269
1 1.29303 3.32139 6.29203
1 4.67244 0.859303 5.18907
1 1.47337 6.37025 2.02435
1 5.6946 6.14289 5.52139
1 4.15401 6.33892 2.55751
1 1.64458 2.32642 1.83315
1 0.0339108 3.20544 3.67148
1 2.12994 3.79914 0.213593
1 4.95523 2.39247 3.11389
1 5.0388 5.77511 0.709628
1 3.70022 1.45136 5.02996
1 0.866753 1.6568 6.13312
1 3.92506 6.47029 0.229889
1 1.92135 0.374198 2.47784
1 1.08577 3.8276 0.513933
1 5.62828 5.53003 1.56482
1 6.52533 5.47252 6.69557
1 4.67643 2.18276 4.1882
1 4.87778 0.157464 3.16038
1 0.405734 2.67666 6.20352
1 2.93673 2.93633 2.88196
1 5.67483 2.61633 2.29997
1 0.9816 4.09947 2.83845
1 3.88034 3.69057 5.00679
1 0.638262 2.10615 3.94171
1 0.728915 1.28036 5.15882
1 5.25302 1.64241 0.402312
1 4.60498 3.66159 1.04904
1 6.00936 4.18934 1.74329
1 2.16535 4.30999 2.26929
1 4.44005 0.999378 0.0794138
1 0.166957 5.60822 2.33783
1 4.93597 4.5658 5.68344
1 6.05415 5.12368 5.69378
1 3.52182 0.600484 4.19341
1 3.31009 6.79418 6.2977
1 5.14641 3.69137 1.88753
1 2.57928 0.874791 6.57348
1 5.06617 2.93016 0.398362
1 4.50582 0.234229 0.940691
1 0.791346 2.08043 0.443641
1 2.86639 3.5251 1.85342
1 3.88927 4.19196 0.174752
1 5.15804 1.38425 1.47697
1 2.8878 4.91702 5.93095
1 1.45812 1.3875 4.39178
1 5.40469 1.47644 3.91625
1 2.378 1.31642 1.59368
1 6.28081 1.18607 0.436708
1 0.19823 6.8024 4.61107
1 3.76777 5.11376 2.78947
1 0.0716724 0.0484141 0.685511
1 4.30479 2.06755 0.29464
1 6.02423 4.30588 6.57378
1 -0.021052 3.02865 0.65162
1 0.885015 0.391182 2.68603
1 2.46181 6.52429 0.0915105
1 1.53933 3.3416 3.37982
1 4.08126 1.08802 1.21694
1 2.4556 6.6072 4.82557
1 6.7181 1.27867 3.70338
1 4.92579 3.8383 -0.0156928
1 6.42805 3.58258 2.49069
1 6.439 6.58096 2.63733
1 4.91358 5.5207 2.80695
1 1.14656 0.733275 1.68011
1 0.540795 4.99346 3.08332
1 6.49239 2.89709 1.64355
1 6.42815 1.97492 2.25064
1 1.8402 6.22678 5.90454
1 2.39271 4.6754 1.25337
1 5.11245 5.03706 6.70111
1 4.2123 5.66359 1.54571
1 4.49273 1.1365 3.53479
1 1.78464 2.3167 3.0402
1 5.50709 1.62557 5.07266
1 3.22448 1.49399 0.63665
1 6.67764 5.79932 3.30329
1 1.91898 1.09672 3.40276
1 0.646577 6.76687 5.65488
1 4.3871 4.29047 3.31961
1 0.0817347 4.46625 5.98196
1 3.89682 3.13515 4.03817
1 0.717182 4.30268 4.91873
1 6.69281 5.99837 5.59907
1 5.92358 2.36332 4.40372
1 3.09477 1.15994 3.49449
1 1.11219 4.38348 6.17839
1 3.09471 5.77017 6.61185
1 2.54631 3.75019 3.48549
1 1.16491 4.58132 1.24908
1 6.5501 0.8796 1.53147
1 1.26888 5.0251 2.25589
1 4.18154 2.38644 5.21099
1 3.33959 4.06176 2.71348
1 1.40967 1.33719 2.44409
1 4.13081 3.8621 2.18654
1 1.29096 5.75599 3.19375
1 5.74117 0.702019 3.1499
1 3.33794 1.75459 1.71342
1 2.57533 4.88549 3.93875
1 2.96123 3.79785 0.792418
1 3.49401 1.92359 6.52797
1 3.88423 5.81159 4.93056
1 5.64544 2.48654 1.14718
1 1.78812 5.15917 5.94653
1 1.89607 3.73574 1.22475
1 4.37902 5.93287 3.58629
1 2.64414 3.77322 5.00586
1 5.99627 0.462064 4.72823
1 3.41314 0.319609 5.17908
1 3.11555 5.58399 1.2567
1 3.79163 1.06733 2.64994
1 3.41664 4.09214 3.99596
1 4.21351 6.75904 4.31054
1 5.2366 6.01131 4.55736
1 6.54009 0.81571 5.632
1 2.10245 0.310715 0.885545
1 4.08743 2.7359 1.12197
1 3.59268 1.95871 4.09021
1 1.38693 0.429013 4.85422
1 3.59003 0.936306 6.15863
1 5.40282 6.66315 2.30604
1 0.58091 3.57301 1.60512
1 1.20039 6.64881 6.67941
1 1.9656 3.81614 4.30111
1 1.4839 0.48495 5.93048
1 1.49027 1.5805 1.08947
1 4.00346 5.47945 0.423948
1 5.39581 1.46639 2.54515
1 1.07053 0.0434531 1.02904
1 0.995943 5.80707 5.25729
1 1.30522 1.09849 0.164419
1 1.72614 4.77489 0.304412
1 5.81186 3.85654 3.81235
1 2.64071 3.08885 4.20129
1 2.5277 2.10037 3.68872
1 2.49466 6.23116 2.66828
1 6.58079 4.75403 3.74423
1 5.10265 3.38704 2.90757
1 3.22981 6.35582 4.18571
1 1.82675 5.74916 6.77079
1 3.20228 4.75142 1.92443
1 6.52237 1.69029 4.77705
1 4.03729 4.90047 6.22865
1 4.35731 1.82954 2.1409
1 2.69736 2.67105 1.30812
1 6.24171 0.0236326 6.43864
1 3.60002 3.13781 0.216678
1 2.03838 5.58103 5.08175
1 5.64664 3.31393 4.75883
1 2.29046 1.64541 0.537065
1 4.43238 4.79196 2.02868
1 2.74925 1.10904 4.66322
1 0.585537 2.71228 2.38721
1 0.372864 4.59911 1.95567
1 6.75646 4.09703 0.990834
1 4.68644 1.65524 5.9573
1 1.35679 5.1101 4.38232
1 5.79323 3.99213 5.52611
1 0.495157 1.11084 0.858093
1 6.36658 5.95693 4.37033
1 2.58693 6.49877 1.61444
1 4.82017 4.68813 0.910032
1 5.62346 1.17149 6.29306
1 3.32364 3.07612 5.79164
1 3.71864 4.62065 1.05971
1 3.97549 3.14364 2.97005
1 1.91884 5.80787 1.01462
1 2.55865 5.27473 2.98827
1 5.57347 6.00452 3.47741
1 6.76137 2.89238 4.72537
1 3.31037 5.86427 2.23595
1 1.89863 3.25396 2.40571
1 0.633675 5.3055 6.2649
1 6.10422 2.29081 0.18822
1 0.752206 5.99582 0.5191
1 3.09291 0.511937 0.532073
1 3.89042 6.08259 5.97771
1 3.69324 2.17999 2.89784
1 1.40066 3.66939 5.31552
1 4.83962 6.60507 6.46647
1 3.61135 5.16857 3.86423
1 0.424759 1.44826 2.03265
1 5.39477 0.340679 5.71822
1 3.38473 6.00565 3.23911
1 6.6189 5.91414 1.25942
1 1.64393 2.17941 6.44213
1 3.5057 2.74013 2.01308
1 5.26205 2.39898 6.21803
1 0.0908543 3.56695 5.56545
1 4.51825 0.409124 1.97206
1 0.413948 1.83447 3.01278
1 1.54172 2.8932 0.670888
1 2.41163 0.489981 5.60524
1 2.75686 1.57926 5.80469
1 6.12908 3.18223 6.36608
1 2.65714 2.59389 6.72496
1 2.79777 4.68113 0.204569
1 2.56365 0.189257 3.51215
1 6.33156 4.71333 2.66602
1 3.62585 6.61181 1.26846
1 1.0344 3.18559 4.27775
1 6.59105 1.88379 1.16561
1 1.86865 1.86219 5.49794
1 1.20929 6.3318 4.36016
1 2.1282 2.90832 5.59166
1 3.10027 5.10572 4.905
1 2.88354 6.12307 5.63908
1 6.04954 2.18362 3.33038
1 4.79712 5.0563 3.96577
1 0.347837 0.740654 6.35831
1 6.73996 3.92471 4.42521
1 3.66409 0.198686 3.25663
1 0.320415 6.74131 1.78057
1 5.94131 5.6884 2.49479
1 4.1779 3.80275 6.01015
1 2.5439 1.65974 2.62654
1 5.84473 5.03467 0.62979
1 2.11897 5.93605 3.84598
1 4.99812 3.18084 4.0096
1 6.7716 5.02116 4.84233
1 5.21304 4.42394 2.70559
1 5.82721 4.8778 4.40969
1 2.27768 5.54884 1.91656
1 4.20463 2.65241 6.33685
1 4.824 4.08459 4.63614
1 4.59291 6.61089 5.28252
1 4.16431 4.77487 4.98646
1 3.08068 3.90798 6.3487
1 4.86441 3.33769 5.3944
1 0.800491 5.48246 1.41861
1 4.79187 5.63073 5.45259
1 6.15526 2.47574 5.46262
1 0.221856 3.73239 6.65214
1 1.75102 2.49991 4.56834
1 0.788809 4.32624 3.88277
1 4.63438 2.789 1.99517
