256
Atoms. Timestep: 90000
1 4.69119 6.3362 2.74559
1 4.74622 5.16251 6.1119
1 5.54328 4.84873 5.3745
1 4.87108 1.08564 3.21269
1 1.20146 3.52719 1.6787
1 6.21309 6.18437 2.642
1 1.28109 1.18387 0.270342
1 5.11455 1.22872 0.546356
1 3.5799 5.46997 2.55524
1 3.60084 4.85534 4.32901
1 1.00526 0.721642 1.18954
1 4.90167 5.79436 1.15195
1 2.87431 1.72516 5.18322
1 1.52306 4.29984 6.59238
1 0.612668 1.13453 4.28607
1 1.68807 2.52105 1.85723
1 1.82671 2.86915 4.28249
1 0.104988 0.403985 3.55643
1 4.73437 1.36581 5.98065
1 4.83072 2.59344 4.19414
1 1.39312 1.70758 1.25295
1 5.54476 6.29761 5.61148
1 3.22225 6.29515 1.60024
1 1.70453 2.1735 0.397663
1 -0.0109361 1.86268 3.73357
1 2.595 2.56887 0.175056
1 0.623667 2.89266 4.37742
1 5.12662 4.73765 2.35153
1 4.13176 3.37011 4.76716
1 2.36004 1.66986 6.23586
1 2.52538 6.09278 2.3735
1 1.76457 0.388119 4.05134
1 6.06994 4.04709 2.17478
1 5.907 4.47722 3.21552
1 0.674154 6.02889 6.16928
1 3.09492 3.5211 0.642602
1 3.80153 5.8119 4.65921
1 1.85593 2.82922 6.01735
1 2.95023 3.38107 2.90981
1 1.05859 2.43842 3.50392
1 5.56577 4.81471 4.19443
1 6.36776 1.13724 4.43797
1 0.935394 1.96408 4.68148
1 2.77642 1.16675 4.20276
1 6.61992 1.02838 6.15623
1 5.64981 1.96077 6.2457
1 3.06647 0.184495 2.74987
1 2.54495 5.64488 3.42776
1 6.0672 5.55749 6.04906
1 0.229428 5.08325 2.84574
1 3.93378 0.255294 6.06444
1 5.07811 6.3351 6.75572
1 2.03842 3.89489 3.22523
1 3.41717 0.362342 4.52494
1 6.1295 1.38533 0.421593
1 3.1101 0.880548 5.72595
1 0.676437 1.41119 2.09249
1 4.09323 0.197535 2.14029
1 6.45589 2.64052 1.29115
1 3.1142 3.70228 1.68398
1 4.23416 1.07658 0.0500665
1 2.90201 4.27789 2.51664
1 6.72768 4.72289 4.75747
1 3.73643 1.59342 4.1057
1 5.10953 6.63542 4.27728
1 2.88019 5.07615 1.82145
1 6.49294 1.68441 2.15204
1 0.548889 0.18116 5.76431
1 4.05728 3.99228 1.05265
1 0.360979 1.20633 5.27106
1 5.65592 1.2338 1.63099
1 0.4612 6.60743 1.30383
1 6.7854 2.13794 4.87639
1 1.56056 0.824143 2.38489
1 3.1178 6.45631 5.39971
1 0.878565 3.89802 4.8819
1 4.36343 0.670453 4.05785
1 1.2684 4.60366 4.06708
1 1.78487 1.60593 2.97938
1 3.76642 5.32626 1.26035
1 0.796073 3.29493 2.88307
1 2.20929 3.46736 2.07784
1 4.99962 3.73975 1.88607
1 2.35663 0.836022 3.33179
1 6.27562 3.85346 4.10253
1 6.26042 3.02014 0.243603
1 6.09874 0.283968 0.473878
1 1.91026 0.618744 6.14192
1 1.93896 4.46313 1.91081
1 4.95496 3.80986 0.258839
1 3.0759 2.66278 1.99969
1 3.88404 2.18401 5.14771
1 3.75629 1.6607 6.05485
1 4.89812 2.69425 5.47826
1 2.419 3.34615 5.27673
1 5.67455 6.49967 3.48856
1 2.3224 1.12317 0.598797
1 3.47619 0.79681 3.49784
1 6.2868 2.83225 3.9935
1 0.0887272 5.76583 4.9256
1 2.99034 2.83048 5.91261
1 0.264598 4.14925 3.39475
1 4.78477 5.8226 5.11216
1 6.72196 3.47157 5.08854
1 3.29459 1.88789 3.08181
1 0.0834865 3.61371 1.19412
1 1.3237 6.5341 2.04794
1 0.744665 5.54598 4.14754
1 2.38583 2.5306 2.65155
1 5.00255 0.0157457 1.32014
1 1.05665 4.32814 2.60783
1 4.33997 5.03587 3.03895
1 5.42689 5.42919 3.14926
1 2.55542 1.27478 2.30411
1 5.23976 3.7532 3.16946
1 1.72108 6.65705 3.09697
1 6.11124 1.10004 3.1277
1 4.35657 5.39724 2.08023
1 3.76261 4.6011 2.02365
1 4.37083 4.06203 2.72496
1 5.44418 0.633701 6.2517
1 5.5345 1.7495 2.54418
1 4.04423 3.50506 0.191254
1 6.27486 4.21409 0.283044
1 3.5923 2.40796 0.304543
1 1.21115 5.47181 3.07335
1 2.34109 4.93628 4.31624
1 6.40314 6.66025 6.33501
1 1.69274 4.07939 5.63422
1 1.91891 3.98068 0.926367
1 3.32249 0.293661 0.530182
1 5.53406 4.30761 6.31175
1 3.05515 2.68632 4.67841
1 5.17032 2.51444 2.99424
1 0.730083 1.21671 3.11435
1 1.94519 5.93284 0.164405
1 2.75553 0.209087 6.43233
1 2.86736 3.6488 4.03059
1 1.77292 1.46163 4.08626
1 4.08869 6.49983 1.14732
1 5.44547 5.77231 2.07497
1 0.950728 5.12733 1.95349
1 0.347871 0.205621 4.6297
1 2.37069 4.75639 0.275907
1 3.24548 0.699384 1.59559
1 1.9106 6.47306 5.58306
1 3.18219 4.50652 0.955759
1 4.87256 2.50373 2.01963
1 0.378759 6.35111 0.361769
1 4.62633 4.45488 4.86591
1 1.23026 0.136915 0.0327548
1 1.51402 3.20605 0.236122
1 4.51787 3.93549 5.83876
1 3.05124 4.68425 3.52221
1 0.704303 4.92211 6.00346
1 1.78585 5.2493 6.25077
1 4.00882 2.9951 6.05709
1 1.70529 5.10347 0.921714
1 0.897148 6.41782 3.58645
1 4.83129 4.59913 1.17524
1 3.56043 5.58744 3.62579
1 0.358185 2.13472 2.75773
1 4.23708 6.09776 6.10245
1 3.91895 1.95877 1.87178
1 3.14447 1.17395 6.73322
1 0.299335 0.66301 0.412814
1 5.73562 1.90429 4.02136
1 6.53346 4.60017 5.9283
1 6.59955 2.34041 6.12449
1 0.560449 4.019 0.326145
1 6.08355 0.179425 4.34839
1 3.54616 2.74593 3.7662
1 2.54924 2.38667 3.8122
1 1.07026 3.68754 3.82212
1 5.50018 2.28053 0.520942
1 4.36537 6.80182 5.07319
1 6.6185 5.01031 3.76509
1 5.284 5.08778 0.29759
1 5.74007 3.55584 1.0127
1 6.15876 0.423325 5.45016
1 4.01433 6.61348 3.46902
1 6.18006 2.33863 3.00993
1 6.71629 0.787784 1.55321
1 3.41914 3.91502 6.26922
1 5.37677 3.03564 6.40383
1 5.83258 2.79835 2.09415
1 2.39435 3.67718 6.41061
1 2.01024 4.98981 2.84206
1 5.75619 5.80227 4.61825
1 5.28067 1.02933 4.35692
1 1.8492 5.52202 1.9361
1 0.297441 3.87342 2.18642
1 4.37824 0.125993 0.259024
1 1.4003 1.53599 5.73482
1 5.89319 4.83114 1.22109
1 2.34355 0.282195 1.94185
1 1.4541 5.1656 5.09502
1 4.42934 1.98644 3.42817
1 1.92311 2.10985 4.95312
1 4.27416 5.63357 0.220864
1 4.06425 2.54606 2.7104
1 1.93306 0.175242 0.909818
1 6.09779 6.55153 1.53687
1 2.80114 5.94212 4.50972
1 0.0982087 5.59195 1.684
1 4.64314 2.22468 6.47745
1 3.96851 3.11849 1.81851
1 3.8559 3.86963 3.63062
1 6.64507 5.24632 0.0291227
1 3.69294 1.04706 2.54558
1 2.50094 1.8413 1.39075
1 0.520415 2.79593 0.289475
1 1.70393 5.95904 4.02216
1 4.726 1.76354 4.88973
1 6.6112 3.5784 6.14747
1 3.29287 4.12922 5.03653
1 6.20233 6.09592 0.578511
1 2.32862 0.550198 4.98419
1 4.55709 5.456 3.93668
1 3.15878 5.84483 0.487392
1 0.272868 1.68003 6.78967
1 0.63892 2.63694 1.73297
1 3.97103 1.00533 5.14423
1 6.72216 6.26108 3.99871
1 1.93727 4.00153 4.57419
1 0.806749 5.04989 0.461212
1 1.11539 5.83293 1.24255
1 1.13588 2.78216 5.31074
1 5.07977 3.7461 4.14836
1 1.28305 0.761702 5.01779
1 6.18236 5.04831 2.11755
1 4.74132 1.28537 2.08228
1 0.401864 1.8527 1.01402
1 6.25073 0.466031 2.33768
1 3.3615 5.05286 6.40797
1 3.35766 1.47045 0.886679
1 4.87822 2.93413 1.03985
1 0.478168 6.10808 2.67031
1 2.63058 4.56302 5.9541
1 1.07263 6.2233 4.9581
1 5.63074 2.67697 4.78982
1 4.27829 0.780234 1.103
1 6.44487 3.47246 2.91662
1 4.18172 4.57585 0.0546158
1 5.61594 3.65436 5.3646
1 5.98074 1.74312 5.27723
1 3.92758 5.14485 5.45619
1 2.38588 2.95007 1.08784
1 1.00912 2.16991 6.37272
1 2.29105 6.10229 1.11123
1 2.58352 6.70299 3.75104
1 0.843148 3.49235 6.19677
1 0.123068 4.6702 1.08883
1 2.92735 5.3676 5.34512
1 0.571944 0.410958 2.46591
1 4.36486 1.89236 0.930921
